 Entering Gaussian System, Link 0=/apps/software/g16/g16
 Initial command:
 /apps/software/g16/l1.exe "/scratch/Gau-404524.inp" -scrdir="/scratch/"
 Entering Link 1 = /apps/software/g16/l1.exe PID=    404525.
  
 Copyright (c) 1988,1990,1992,1993,1995,1998,2003,2009,2016,
            Gaussian, Inc.  All Rights Reserved.
  
 This is part of the Gaussian(R) 16 program.  It is based on
 the Gaussian(R) 09 system (copyright 2009, Gaussian, Inc.),
 the Gaussian(R) 03 system (copyright 2003, Gaussian, Inc.),
 the Gaussian(R) 98 system (copyright 1998, Gaussian, Inc.),
 the Gaussian(R) 94 system (copyright 1995, Gaussian, Inc.),
 the Gaussian 92(TM) system (copyright 1992, Gaussian, Inc.),
 the Gaussian 90(TM) system (copyright 1990, Gaussian, Inc.),
 the Gaussian 88(TM) system (copyright 1988, Gaussian, Inc.),
 the Gaussian 86(TM) system (copyright 1986, Carnegie Mellon
 University), and the Gaussian 82(TM) system (copyright 1983,
 Carnegie Mellon University). Gaussian is a federally registered
 trademark of Gaussian, Inc.
  
 This software contains proprietary and confidential information,
 including trade secrets, belonging to Gaussian, Inc.
  
 This software is provided under written license and may be
 used, copied, transmitted, or stored only in accord with that
 written license.
  
 The following legend is applicable only to US Government
 contracts under FAR:
  
                    RESTRICTED RIGHTS LEGEND
  
 Use, reproduction and disclosure by the US Government is
 subject to restrictions as set forth in subparagraphs (a)
 and (c) of the Commercial Computer Software - Restricted
 Rights clause in FAR 52.227-19.
  
 Gaussian, Inc.
 340 Quinnipiac St., Bldg. 40, Wallingford CT 06492
  
  
 ---------------------------------------------------------------
 Warning -- This program may not be used in any manner that
 competes with the business of Gaussian, Inc. or will provide
 assistance to any competitor of Gaussian, Inc.  The licensee
 of this program is prohibited from giving any competitor of
 Gaussian, Inc. access to this program.  By using this program,
 the user acknowledges that Gaussian, Inc. is engaged in the
 business of creating and licensing software in the field of
 computational chemistry and represents and warrants to the
 licensee that it is not a competitor of Gaussian, Inc. and that
 it will not use this program in any manner prohibited above.
 ---------------------------------------------------------------
  

 Cite this work as:
 Gaussian 16, Revision A.03,
 M. J. Frisch, G. W. Trucks, H. B. Schlegel, G. E. Scuseria, 
 M. A. Robb, J. R. Cheeseman, G. Scalmani, V. Barone, 
 G. A. Petersson, H. Nakatsuji, X. Li, M. Caricato, A. V. Marenich, 
 J. Bloino, B. G. Janesko, R. Gomperts, B. Mennucci, H. P. Hratchian, 
 J. V. Ortiz, A. F. Izmaylov, J. L. Sonnenberg, D. Williams-Young, 
 F. Ding, F. Lipparini, F. Egidi, J. Goings, B. Peng, A. Petrone, 
 T. Henderson, D. Ranasinghe, V. G. Zakrzewski, J. Gao, N. Rega, 
 G. Zheng, W. Liang, M. Hada, M. Ehara, K. Toyota, R. Fukuda, 
 J. Hasegawa, M. Ishida, T. Nakajima, Y. Honda, O. Kitao, H. Nakai, 
 T. Vreven, K. Throssell, J. A. Montgomery, Jr., J. E. Peralta, 
 F. Ogliaro, M. J. Bearpark, J. J. Heyd, E. N. Brothers, K. N. Kudin, 
 V. N. Staroverov, T. A. Keith, R. Kobayashi, J. Normand, 
 K. Raghavachari, A. P. Rendell, J. C. Burant, S. S. Iyengar, 
 J. Tomasi, M. Cossi, J. M. Millam, M. Klene, C. Adamo, R. Cammi, 
 J. W. Ochterski, R. L. Martin, K. Morokuma, O. Farkas, 
 J. B. Foresman, and D. J. Fox, Gaussian, Inc., Wallingford CT, 2016.
 
 ******************************************
 Gaussian 16:  ES64L-G16RevA.03 25-Dec-2016
                22-May-2022 
 ******************************************
 %oldchk=BH-1.6-UHF-G.chk
 %chk=BH-1.6-UCCSD-G.chk
 Copying data from "BH-1.6-UHF-G.chk" to current chk file "BH-1.6-UCCSD-G.chk"
 IOpt=  2 FromEx=T IUOpen= 4 IOptOp= 5 NList=   0 IFRang= 0 IUIn= 4 IUOut= 2.
 -------------------------------------
 #p UHF/aug-cc-pVQZ guess=read CCSD=FC
 -------------------------------------
 1/38=1,172=1/1;
 2/12=2,17=6,18=5,40=1/2;
 3/5=16,6=2,7=10,11=2,25=1,30=1,116=2/1,2,3;
 4/5=1/1;
 5/5=2,38=6/2;
 8/6=4,9=120000,10=1/1,4;
 9/5=7/13;
 6/7=2,8=2,9=2,10=2/1;
 99/5=1,9=1/99;
 Leave Link    1 at Sun May 22 18:38:18 2022, MaxMem=   104857600 cpu:               0.0 elap:               0.0
 (Enter /apps/software/g16/l101.exe)
 ------------------------
 BH UCCSD at 1.6 Angstrom
 ------------------------
 Symbolic Z-matrix:
 Charge =  0 Multiplicity = 1
 B                     0.        0.        0. 
 H                     1.6       0.        0. 
 
 ITRead=  0  0
 MicOpt= -1 -1
 NAtoms=      2 NQM=        2 NQMF=       0 NMMI=      0 NMMIF=      0
                NMic=       0 NMicF=      0.
                    Isotopes and Nuclear Properties:
 (Nuclear quadrupole moments (NQMom) in fm**2, nuclear magnetic moments (NMagM)
  in nuclear magnetons)

  Atom         1           2
 IAtWgt=          11           1
 AtmWgt=  11.0093053   1.0078250
 NucSpn=           3           1
 AtZEff=  -0.0000000  -0.0000000
 NQMom=    4.0590000   0.0000000
 NMagM=    2.6886370   2.7928460
 AtZNuc=   5.0000000   1.0000000
 Leave Link  101 at Sun May 22 18:38:18 2022, MaxMem=   104857600 cpu:               0.1 elap:               0.1
 (Enter /apps/software/g16/l202.exe)
                          Input orientation:                          
 ---------------------------------------------------------------------
 Center     Atomic      Atomic             Coordinates (Angstroms)
 Number     Number       Type             X           Y           Z
 ---------------------------------------------------------------------
      1          5           0        0.000000    0.000000    0.000000
      2          1           0        1.600000    0.000000    0.000000
 ---------------------------------------------------------------------
 Stoichiometry    BH
 Framework group  C*V[C*(HB)]
 Deg. of freedom     1
 Full point group                 C*V     NOp   4
 Largest Abelian subgroup         C2V     NOp   4
 Largest concise Abelian subgroup C1      NOp   1
                         Standard orientation:                         
 ---------------------------------------------------------------------
 Center     Atomic      Atomic             Coordinates (Angstroms)
 Number     Number       Type             X           Y           Z
 ---------------------------------------------------------------------
      1          5           0        0.000000    0.000000    0.266667
      2          1           0        0.000000    0.000000   -1.333333
 ---------------------------------------------------------------------
 Rotational constants (GHZ):           0.0000000         213.8124290         213.8124290
 Leave Link  202 at Sun May 22 18:38:18 2022, MaxMem=   104857600 cpu:               0.0 elap:               0.0
 (Enter /apps/software/g16/l301.exe)
 Standard basis: Aug-CC-pVQZ (5D, 7F)
 Ernie: Thresh=  0.10000D-02 Tol=  0.10000D-05 Strict=F.
 Ernie:  4 primitive shells out of 54 were deleted.
 There are    68 symmetry adapted cartesian basis functions of A1  symmetry.
 There are    18 symmetry adapted cartesian basis functions of A2  symmetry.
 There are    37 symmetry adapted cartesian basis functions of B1  symmetry.
 There are    37 symmetry adapted cartesian basis functions of B2  symmetry.
 There are    50 symmetry adapted basis functions of A1  symmetry.
 There are    16 symmetry adapted basis functions of A2  symmetry.
 There are    30 symmetry adapted basis functions of B1  symmetry.
 There are    30 symmetry adapted basis functions of B2  symmetry.
   126 basis functions,   180 primitive gaussians,   160 cartesian basis functions
     3 alpha electrons        3 beta electrons
       nuclear repulsion energy         1.6536787841 Hartrees.
 IExCor=    0 DFT=F Ex=HF Corr=None ExCW=0 ScaHFX=  1.000000
 ScaDFX=  1.000000  1.000000  1.000000  1.000000 ScalE2=  1.000000  1.000000
 IRadAn=      5 IRanWt=     -1 IRanGd=            0 ICorTp=0 IEmpDi=  4
 NAtoms=    2 NActive=    2 NUniq=    2 SFac= 1.00D+00 NAtFMM=   60 NAOKFM=F Big=F
 Integral buffers will be    131072 words long.
 Raffenetti 2 integral format.
 Two-electron integral symmetry is turned on.
 Leave Link  301 at Sun May 22 18:38:18 2022, MaxMem=   104857600 cpu:               0.1 elap:               0.1
 (Enter /apps/software/g16/l302.exe)
 NPDir=0 NMtPBC=     1 NCelOv=     1 NCel=       1 NClECP=     1 NCelD=      1
         NCelK=      1 NCelE2=     1 NClLst=     1 CellRange=     0.0.
 One-electron integrals computed using PRISM.
 One-electron integral symmetry used in STVInt
 NBasis=   126 RedAO= T EigKep=  2.51D-04  NBF=    50    16    30    30
 NBsUse=   126 1.00D-06 EigRej= -1.00D+00 NBFU=    50    16    30    30
 Leave Link  302 at Sun May 22 18:38:18 2022, MaxMem=   104857600 cpu:               0.1 elap:               0.1
 (Enter /apps/software/g16/l303.exe)
 DipDrv:  MaxL=1.
 Leave Link  303 at Sun May 22 18:38:18 2022, MaxMem=   104857600 cpu:               0.0 elap:               0.0
 (Enter /apps/software/g16/l401.exe)
 Initial guess from the checkpoint file:  "BH-1.6-UCCSD-G.chk"
 B after Tr=     0.000000    0.000000    0.000000
         Rot=    1.000000    0.000000    0.000000    0.000000 Ang=   0.00 deg.
 Guess basis will be translated and rotated to current coordinates.
 JPrj=2 DoOrth=T DoCkMO=T.
 Initial guess orbital symmetries:
 Alpha Orbitals:
       Occupied  (SG) (?A) (?A)
       Virtual   (?A) (?A) (?A) (?A) (?A) (?A) (?A) (?B) (?B) (?B)
                 (?B) (?B) (?A) (SG) (PI) (PI) (?A) (?A) (?A) (?A)
                 (?C) (?C) (?C) (?C) (?C) (?C) (?C) (?C) (SG) (PI)
                 (PI) (SG) (SG) (?D) (?D) (?D) (?D) (?D) (PI) (PI)
                 (?E) (?E) (?E) (?E) (PHI) (PHI) (?F) (?F) (?G)
                 (?G) (?G) (?G) (?G) (?G) (?G) (?G) (?G) (?G) (?G)
                 (?G) (?G) (?G) (?G) (PHI) (PHI) (PI) (PI) (SG)
                 (?H) (?H) (?H) (?H) (?H) (SG) (DLTA) (DLTA) (PI)
                 (PI) (SG) (?I) (?I) (?I) (PI) (PI) (?J) (?J) (?J)
                 (?J) (?J) (?J) (?K) (?K) (?K) (?K) (?K) (?K) (?K)
                 (?K) (?K) (?L) (?L) (?L) (?L) (?L) (?L) (SG) (PHI)
                 (PHI) (DLTA) (DLTA) (PI) (PI) (SG) (SG) (PI) (PI)
                 (DLTA) (DLTA) (PI) (PI) (SG) (SG) (SG)
 Beta  Orbitals:
       Occupied  (SG) (?A) (?A)
       Virtual   (?A) (?A) (?A) (?A) (?A) (?A) (?A) (?B) (?B) (?B)
                 (?B) (?B) (?A) (SG) (PI) (PI) (?A) (?A) (?A) (?A)
                 (?C) (?C) (?C) (?C) (?C) (?C) (?C) (?C) (SG) (PI)
                 (PI) (SG) (SG) (?D) (?D) (?D) (?D) (?D) (PI) (PI)
                 (?E) (?E) (?E) (?E) (PHI) (PHI) (?F) (?F) (?G)
                 (?G) (?G) (?G) (?G) (?G) (?G) (?G) (?G) (?G) (?G)
                 (?G) (?G) (?G) (?G) (PHI) (PHI) (PI) (PI) (SG)
                 (?H) (?H) (?H) (?H) (?H) (SG) (DLTA) (DLTA) (PI)
                 (PI) (SG) (?I) (?I) (?I) (PI) (PI) (?J) (?J) (?J)
                 (?J) (?J) (?J) (?K) (?K) (?K) (?K) (?K) (?K) (?K)
                 (?K) (?K) (?L) (?L) (?L) (?L) (?L) (?L) (SG) (PHI)
                 (PHI) (DLTA) (DLTA) (PI) (PI) (SG) (SG) (PI) (PI)
                 (DLTA) (DLTA) (PI) (PI) (SG) (SG) (SG)
 Initial guess <Sx>= 0.0000 <Sy>= 0.0000 <Sz>= 0.0000 <S**2>= 0.3840 S= 0.2962
 Leave Link  401 at Sun May 22 18:38:18 2022, MaxMem=   104857600 cpu:               0.1 elap:               0.1
 (Enter /apps/software/g16/l502.exe)
 Keep R1 and R2 ints in memory in symmetry-blocked form, NReq=40143665.
 FoFCou: FMM=F IPFlag=           0 FMFlag=           0 FMFlg1=           0
         NFxFlg=           0 DoJE=F BraDBF=F KetDBF=F FulRan=T
         wScrn=  0.000000 ICntrl=       600 IOpCl=  0 I1Cent=           0 NGrid=           0
         NMat0=    1 NMatS0=   8001 NMatT0=    0 NMatD0=    1 NMtDS0=    0 NMtDT0=    0
 Petite list used in FoFCou.
 UHF open shell SCF:
 Using DIIS extrapolation, IDIIS=  1040.
 NGot=   104857600 LenX=    88563632 LenY=    88537591
 Requested convergence on RMS density matrix=1.00D-08 within 128 cycles.
 Requested convergence on MAX density matrix=1.00D-06.
 Requested convergence on             energy=1.00D-06.
 No special actions if energy rises.
 An orbital has undefined symmetry, so N**3 symmetry is turned off.

 Cycle   1  Pass 1  IDiag  1:
 Density matrix breaks symmetry, PCut= 1.00D-07
 Density matrix has no symmetry -- integrals replicated.
 E= -25.1037409300335    
 DIIS: error= 3.38D-09 at cycle   1 NSaved=   1.
 NSaved= 1 IEnMin= 1 EnMin= -25.1037409300335     IErMin= 1 ErrMin= 3.38D-09
 ErrMax= 3.38D-09  0.00D+00 EMaxC= 1.00D-01 BMatC= 1.07D-15 BMatP= 1.07D-15
 IDIUse=1 WtCom= 1.00D+00 WtEn= 0.00D+00
 Coeff-Com:  0.100D+01
 Coeff:      0.100D+01
 Gap=     0.388 Goal=   None    Shift=    0.000
 Gap=     0.388 Goal=   None    Shift=    0.000
 RMSDP=2.79D-10 MaxDP=1.24D-08              OVMax= 2.37D-08

 Density matrix breaks symmetry, PCut= 1.00D-07
 Density matrix has no symmetry -- integrals replicated.
 SCF Done:  E(UHF) =  -25.1037409300     A.U. after    1 cycles
            NFock=  1  Conv=0.28D-09     -V/T= 2.0084
 <Sx>= 0.0000 <Sy>= 0.0000 <Sz>= 0.0000 <S**2>= 0.3840 S= 0.2962
 <L.S>=  0.00000000000    
 KE= 2.489500542130D+01 PE=-6.107659737498D+01 EE= 9.424172239522D+00
 Annihilation of the first spin contaminant:
 S**2 before annihilation     0.3840,   after     0.0049
 Leave Link  502 at Sun May 22 18:38:22 2022, MaxMem=   104857600 cpu:               4.0 elap:               4.0
 (Enter /apps/software/g16/l801.exe)
 Windowed orbitals will be sorted by symmetry type.
 ExpMin= 1.88D-02 ExpMax= 2.39D+04 ExpMxC= 2.30D+02 IAcc=3 IRadAn=         5 AccDes= 0.00D+00
 HarFok:  IExCor=  205 AccDes= 0.00D+00 IRadAn=         5 IDoV=-2 UseB2=F ITyADJ=14
 ICtDFT= 12500011 ScaDFX=  1.000000  1.000000  1.000000  1.000000
 Largest valence mixing into a core orbital is  3.62D-04
 Largest core mixing into a valence orbital is  8.73D-05
 Largest valence mixing into a core orbital is  3.62D-04
 Largest core mixing into a valence orbital is  8.73D-05
 Range of M.O.s used for correlation:     2   126
 NBasis=   126 NAE=     3 NBE=     3 NFC=     1 NFV=     0
 NROrb=    125 NOA=     2 NOB=     2 NVA=   123 NVB=   123

 **** Warning!!: The largest alpha MO coefficient is  0.20786695D+02


 **** Warning!!: The largest beta MO coefficient is  0.20786695D+02

 Leave Link  801 at Sun May 22 18:38:22 2022, MaxMem=   104857600 cpu:               0.1 elap:               0.1
 (Enter /apps/software/g16/l804.exe)
 Open-shell transformation, MDV=   104857600 ITran=4 ISComp=1.
 Unit  1 TFree=        991730 TCopy=        422292.
 Semi-Direct transformation.
 ModeAB=           2 MOrb=             2 LenV=     104170912
 LASXX=      1914004 LTotXX=     1914004 LenRXX=     1914004
 LTotAB=     1960875 MaxLAS=     3220000 LenRXY=     3220000
 NonZer=     3828008 LenScr=     6455808 LnRSAI=           0
 LnScr1=           0 LExtra=           0 Total=     11589812
 MaxDsk=          -1 SrtSym=           F ITran=            4
 DoSDTr:  NPSUse=  1
 JobTyp=1 Pass  1:  I=   1 to   2.
 (rs|ai) integrals will be sorted in core.
 Complete sort for first half transformation.
 First half transformation complete.
 Complete sort for second half transformation.
 Second half transformation complete.
 ModeAB=           2 MOrb=             2 LenV=     104170912
 LASXX=      1914004 LTotXX=     1914004 LenRXX=     3220000
 LTotAB=     1898874 MaxLAS=     3220000 LenRXY=     1898874
 NonZer=     3828008 LenScr=     6455808 LnRSAI=           0
 LnScr1=           0 LExtra=           0 Total=     11574682
 MaxDsk=          -1 SrtSym=           F ITran=            4
 DoSDTr:  NPSUse=  1
 JobTyp=2 Pass  1:  I=   1 to   2.
 (rs|ai) integrals will be sorted in core.
 Complete sort for first half transformation.
 First half transformation complete.
 Complete sort for second half transformation.
 Second half transformation complete.
 SymMOI:  orbitals are not symmetric.
 Spin components of T(2) and E(2):
     alpha-alpha T2 =       0.1281926258D-02 E2=     -0.2553311596D-02
     alpha-beta  T2 =       0.3196735431D-01 E2=     -0.6416956627D-01
     beta-beta   T2 =       0.1281926258D-02 E2=     -0.2553311596D-02
 ANorm=    0.1017119072D+01
 E2 =    -0.6927618946D-01 EUMP2 =    -0.25173017119494D+02
 (S**2,0)=  0.38398D+00           (S**2,1)=  0.35936D+00
 E(PUHF)=      -0.25113449104D+02        E(PMP2)=      -0.25182416043D+02
 Leave Link  804 at Sun May 22 18:38:33 2022, MaxMem=   104857600 cpu:              10.7 elap:              10.7
 (Enter /apps/software/g16/l913.exe)
 CIDS:  MDV=   104857600.
 Frozen-core window:  NFC=   1 NFV=   0.
 IFCWin=0 IBDFC=1 NFBD=     0     0 NFCmp=     0     0 NFFFC=     0     0
 Using original routines for 1st iteration.
 Using DD4UQ or CC4UQ for 2nd and later iterations.
 Keep R2 and R3 ints in memory in symmetry-blocked form, NReq=40147367.
 FoFCou: FMM=F IPFlag=           0 FMFlag=           0 FMFlg1=           0
         NFxFlg=           0 DoJE=F BraDBF=F KetDBF=F FulRan=T
         wScrn=  0.000000 ICntrl=       600 IOpCl=  0 I1Cent=           0 NGrid=           0
         NMat0=    1 NMatS0=   8001 NMatT0=    0 NMatD0=    1 NMtDS0=    0 NMtDT0=    0
 Petite list used in FoFCou.
 CIDS: In Core Option IDoMem=           1.
 Coupled Cluster theory with single and double substitutions
 ===========================================================
 Iterations=  50 Convergence= 0.100D-06
 Produce multiple copies of IABC intergrals
 Iteration Nr.   1
 **********************
 DD1Dir will call FoFMem   1 times, MxPair=        10
 NAB=     4 NAA=     1 NBB=     1.
 E(PMP3)=      -0.25195957124D+02
 MP4(R+Q)=  0.16311787D-02
 Maximum subspace dimension=  5
 A-vector RMS=  3.8232495D-03 Max=  1.2094163D-02 conv= 1.00D-05.
 RLE energy=       -0.0847256392
 E3=       -0.14251345D-01        EUMP3=      -0.25187268465D+02
 E4(DQ)=   -0.44051420D-02        UMP4(DQ)=   -0.25191673607D+02
 E4(SDQ)=  -0.54137978D-02        UMP4(SDQ)=  -0.25192682263D+02
 VARIATIONAL ENERGIES WITH THE FIRST-ORDER WAVEFUNCTION:
 DE(Corr)= -0.81908484E-01 E(Corr)=     -25.185649414    
 NORM(A)=   0.10311131D+01
 Iteration Nr.   2
 **********************
 DD1Dir will call FoFMem   1 times, MxPair=        10
 NAB=     4 NAA=     1 NBB=     1.
 A-vector RMS=  3.0365149D-03 Max=  1.2692902D-02 conv= 1.00D-05.
 RLE energy=       -0.0939870648
 DE(Corr)= -0.89013437E-01 E(CORR)=     -25.192754367     Delta=-7.10D-03
 NORM(A)=   0.10470151D+01
 Iteration Nr.   3
 **********************
 DD1Dir will call FoFMem   1 times, MxPair=        10
 NAB=     4 NAA=     1 NBB=     1.
 A-vector RMS=  2.6741588D-03 Max=  1.2233722D-02 conv= 1.00D-05.
 RLE energy=       -0.0979039996
 DE(Corr)= -0.94019405E-01 E(CORR)=     -25.197760335     Delta=-5.01D-03
 NORM(A)=   0.10700696D+01
 Iteration Nr.   4
 **********************
 DD1Dir will call FoFMem   1 times, MxPair=        10
 NAB=     4 NAA=     1 NBB=     1.
 A-vector RMS=  1.9238183D-03 Max=  9.0583430D-03 conv= 1.00D-05.
 RLE energy=       -0.1015002481
 DE(Corr)= -0.98109971E-01 E(CORR)=     -25.201850901     Delta=-4.09D-03
 NORM(A)=   0.11051554D+01
 Iteration Nr.   5
 **********************
 DD1Dir will call FoFMem   1 times, MxPair=        10
 NAB=     4 NAA=     1 NBB=     1.
 A-vector RMS=  1.1025355D-03 Max=  5.0517494D-03 conv= 1.00D-05.
 RLE energy=       -0.1021545475
 DE(Corr)= -0.10123242     E(CORR)=     -25.204973353     Delta=-3.12D-03
 NORM(A)=   0.11252360D+01
 Iteration Nr.   6
 **********************
 DD1Dir will call FoFMem   1 times, MxPair=        10
 NAB=     4 NAA=     1 NBB=     1.
 A-vector RMS=  4.9229962D-04 Max=  1.8602499D-03 conv= 1.00D-05.
 RLE energy=       -0.1026278294
 DE(Corr)= -0.10219030     E(CORR)=     -25.205931233     Delta=-9.58D-04
 NORM(A)=   0.11335331D+01
 Iteration Nr.   7
 **********************
 DD1Dir will call FoFMem   1 times, MxPair=        10
 NAB=     4 NAA=     1 NBB=     1.
 A-vector RMS=  2.0749985D-04 Max=  6.7796828D-04 conv= 1.00D-05.
 RLE energy=       -0.1026846055
 DE(Corr)= -0.10259632     E(CORR)=     -25.206337246     Delta=-4.06D-04
 NORM(A)=   0.11348860D+01
 Iteration Nr.   8
 **********************
 DD1Dir will call FoFMem   1 times, MxPair=        10
 NAB=     4 NAA=     1 NBB=     1.
 A-vector RMS=  8.3612074D-05 Max=  2.9239863D-04 conv= 1.00D-05.
 RLE energy=       -0.1026635221
 DE(Corr)= -0.10265142     E(CORR)=     -25.206392350     Delta=-5.51D-05
 NORM(A)=   0.11352352D+01
 Iteration Nr.   9
 **********************
 DD1Dir will call FoFMem   1 times, MxPair=        10
 NAB=     4 NAA=     1 NBB=     1.
 A-vector RMS=  3.0037898D-05 Max=  1.0875578D-04 conv= 1.00D-05.
 RLE energy=       -0.1026578088
 DE(Corr)= -0.10265630     E(CORR)=     -25.206397228     Delta=-4.88D-06
 NORM(A)=   0.11354210D+01
 Iteration Nr.  10
 **********************
 DD1Dir will call FoFMem   1 times, MxPair=        10
 NAB=     4 NAA=     1 NBB=     1.
 A-vector RMS=  1.1208668D-05 Max=  4.2222955D-05 conv= 1.00D-05.
 RLE energy=       -0.1026450956
 DE(Corr)= -0.10265399     E(CORR)=     -25.206394916     Delta= 2.31D-06
 NORM(A)=   0.11353873D+01
 Iteration Nr.  11
 **********************
 DD1Dir will call FoFMem   1 times, MxPair=        10
 NAB=     4 NAA=     1 NBB=     1.
 A-vector RMS=  6.6780277D-06 Max=  2.2377532D-05 conv= 1.00D-05.
 RLE energy=       -0.1026416055
 DE(Corr)= -0.10264689     E(CORR)=     -25.206387822     Delta= 7.09D-06
 NORM(A)=   0.11353456D+01
 Iteration Nr.  12
 **********************
 DD1Dir will call FoFMem   1 times, MxPair=        10
 NAB=     4 NAA=     1 NBB=     1.
 A-vector RMS=  4.0356791D-06 Max=  1.6164030D-05 conv= 1.00D-05.
 RLE energy=       -0.1026378447
 DE(Corr)= -0.10264209     E(CORR)=     -25.206383024     Delta= 4.80D-06
 NORM(A)=   0.11352952D+01
 Iteration Nr.  13
 **********************
 DD1Dir will call FoFMem   1 times, MxPair=        10
 NAB=     4 NAA=     1 NBB=     1.
 A-vector RMS=  2.7649481D-06 Max=  1.2907857D-05 conv= 1.00D-05.
 RLE energy=       -0.1026361144
 DE(Corr)= -0.10263862     E(CORR)=     -25.206379546     Delta= 3.48D-06
 NORM(A)=   0.11352565D+01
 Iteration Nr.  14
 **********************
 DD1Dir will call FoFMem   1 times, MxPair=        10
 NAB=     4 NAA=     1 NBB=     1.
 A-vector RMS=  1.7297453D-06 Max=  7.7168825D-06 conv= 1.00D-05.
 RLE energy=       -0.1026347576
 DE(Corr)= -0.10263646     E(CORR)=     -25.206377386     Delta= 2.16D-06
 NORM(A)=   0.11352245D+01
 Iteration Nr.  15
 **********************
 DD1Dir will call FoFMem   1 times, MxPair=        10
 NAB=     4 NAA=     1 NBB=     1.
 A-vector RMS=  8.9935808D-07 Max=  3.7282789D-06 conv= 1.00D-05.
 RLE energy=       -0.1026341060
 DE(Corr)= -0.10263493     E(CORR)=     -25.206375860     Delta= 1.53D-06
 NORM(A)=   0.11352077D+01
 Iteration Nr.  16
 **********************
 DD1Dir will call FoFMem   1 times, MxPair=        10
 NAB=     4 NAA=     1 NBB=     1.
 A-vector RMS=  3.6826164D-07 Max=  1.2311252D-06 conv= 1.00D-05.
 RLE energy=       -0.1026339201
 DE(Corr)= -0.10263417     E(CORR)=     -25.206375104     Delta= 7.57D-07
 NORM(A)=   0.11352022D+01
 Iteration Nr.  17
 **********************
 DD1Dir will call FoFMem   1 times, MxPair=        10
 NAB=     4 NAA=     1 NBB=     1.
 A-vector RMS=  1.5241526D-07 Max=  4.6429740D-07 conv= 1.00D-05.
 RLE energy=       -0.1026338004
 DE(Corr)= -0.10263393     E(CORR)=     -25.206374862     Delta= 2.41D-07
 NORM(A)=   0.11351998D+01
 Iteration Nr.  18
 **********************
 DD1Dir will call FoFMem   1 times, MxPair=        10
 NAB=     4 NAA=     1 NBB=     1.
 A-vector RMS=  6.7620851D-08 Max=  2.4625766D-07 conv= 1.00D-05.
 RLE energy=       -0.1026337633
 DE(Corr)= -0.10263381     E(CORR)=     -25.206374742     Delta= 1.21D-07
 NORM(A)=   0.11351991D+01
 Iteration Nr.  19
 **********************
 DD1Dir will call FoFMem   1 times, MxPair=        10
 NAB=     4 NAA=     1 NBB=     1.
 A-vector RMS=  3.1627327D-08 Max=  1.0362304D-07 conv= 1.00D-05.
 RLE energy=       -0.1026337409
 DE(Corr)= -0.10263377     E(CORR)=     -25.206374698     Delta= 4.34D-08
 NORM(A)=   0.11351988D+01
 CI/CC converged in   19 iterations to DelEn= 4.34D-08 Conv= 1.00D-07 ErrA1= 3.16D-08 Conv= 1.00D-05
 Wavefunction amplitudes converged. E(Corr)=     -25.206374698    
 Dominant configurations:
 ***********************
 Spin Case        I    J    A    B          Value
    AA            3         5            0.158263D+00
    AA            3         9            0.174974D+00
    BB            3         5            0.158263D+00
    BB            3         9            0.174974D+00
 Largest amplitude= 1.75D-01

 S**2, projected HF & approx projected MPn energies after annihilation of
 unwanted spin states (see manual for definitions):

 spins       (S**2,0) (S**2,1)    PUHF        PMP2        PMP3        PMP4
 annihilated
 s+1        -0.00247 -0.00070  -25.113449  -25.182416  -25.195957
 s+1,s+2     0.00000  0.00000  -25.113204  -25.182182  -25.195741

 Discarding MO integrals.
 Leave Link  913 at Sun May 22 18:38:42 2022, MaxMem=   104857600 cpu:               8.9 elap:               8.9
 (Enter /apps/software/g16/l601.exe)
 Copying SCF densities to generalized density rwf, IOpCl= 1 IROHF=0.
 SCF density gives NOpUse=  1 NOpAll=  4.
 Marking SCF density as not fully symmetric.

 **********************************************************************

            Population analysis using the SCF density.

 **********************************************************************

 Orbital symmetries:
 Alpha Orbitals:
       Occupied  (SG) (?A) (?A)
       Virtual   (?A) (?A) (?A) (?A) (?A) (?A) (?A) (?B) (?B) (?B)
                 (?B) (?B) (?A) (SG) (PI) (PI) (?A) (?A) (?A) (?A)
                 (?C) (?C) (?C) (?C) (?C) (?C) (?C) (?C) (SG) (PI)
                 (PI) (SG) (SG) (?D) (?D) (?D) (?D) (?D) (PI) (PI)
                 (?E) (?E) (?E) (?E) (PHI) (PHI) (?F) (?F) (?G)
                 (?G) (?G) (?G) (?G) (?G) (?G) (?G) (?G) (?G) (?G)
                 (?G) (?G) (?G) (?G) (PHI) (PHI) (PI) (PI) (SG)
                 (?H) (?H) (?H) (?H) (?H) (SG) (DLTA) (DLTA) (PI)
                 (PI) (SG) (?I) (?I) (?I) (PI) (PI) (?J) (?J) (?J)
                 (?J) (?J) (?J) (?K) (?K) (?K) (?K) (?K) (?K) (?K)
                 (?K) (?K) (?L) (?L) (?L) (?L) (?L) (?L) (SG) (PHI)
                 (PHI) (DLTA) (DLTA) (PI) (PI) (SG) (SG) (PI) (PI)
                 (DLTA) (DLTA) (PI) (PI) (SG) (SG) (SG)
 Beta  Orbitals:
       Occupied  (SG) (?A) (?A)
       Virtual   (?A) (?A) (?A) (?A) (?A) (?A) (?A) (?B) (?B) (?B)
                 (?B) (?B) (?A) (SG) (PI) (PI) (?A) (?A) (?A) (?A)
                 (?C) (?C) (?C) (?C) (?C) (?C) (?C) (?C) (SG) (PI)
                 (PI) (SG) (SG) (?D) (?D) (?D) (?D) (?D) (PI) (PI)
                 (?E) (?E) (?E) (?E) (PHI) (PHI) (?F) (?F) (?G)
                 (?G) (?G) (?G) (?G) (?G) (?G) (?G) (?G) (?G) (?G)
                 (?G) (?G) (?G) (?G) (PHI) (PHI) (PI) (PI) (SG)
                 (?H) (?H) (?H) (?H) (?H) (SG) (DLTA) (DLTA) (PI)
                 (PI) (SG) (?I) (?I) (?I) (PI) (PI) (?J) (?J) (?J)
                 (?J) (?J) (?J) (?K) (?K) (?K) (?K) (?K) (?K) (?K)
                 (?K) (?K) (?L) (?L) (?L) (?L) (?L) (?L) (SG) (PHI)
                 (PHI) (DLTA) (DLTA) (PI) (PI) (SG) (SG) (PI) (PI)
                 (DLTA) (DLTA) (PI) (PI) (SG) (SG) (SG)
 Unable to determine electronic state:  an orbital has unidentified symmetry.
 Alpha  occ. eigenvalues --   -7.72350  -0.57697  -0.36616
 Alpha virt. eigenvalues --    0.02212   0.02664   0.03325   0.04772   0.07567
 Alpha virt. eigenvalues --    0.07962   0.10501   0.13715   0.13818   0.14088
 Alpha virt. eigenvalues --    0.14530   0.14535   0.20423   0.23941   0.27117
 Alpha virt. eigenvalues --    0.27211   0.30488   0.30714   0.34818   0.38777
 Alpha virt. eigenvalues --    0.46025   0.46025   0.46290   0.46292   0.48084
 Alpha virt. eigenvalues --    0.48338   0.49778   0.49811   0.52455   0.56169
 Alpha virt. eigenvalues --    0.56388   0.56978   0.69554   0.78805   0.78934
 Alpha virt. eigenvalues --    0.79979   0.79984   0.80071   0.99021   0.99108
 Alpha virt. eigenvalues --    1.19160   1.19721   1.20093   1.27708   1.35482
 Alpha virt. eigenvalues --    1.35482   1.36766   1.36766   1.38105   1.38255
 Alpha virt. eigenvalues --    1.38856   1.38962   1.40251   1.43140   1.43147
 Alpha virt. eigenvalues --    1.44590   1.44594   1.50373   1.52618   1.53117
 Alpha virt. eigenvalues --    1.56614   1.56615   1.62130   1.79083   1.79083
 Alpha virt. eigenvalues --    1.84075   1.84397   1.97880   2.11732   2.11969
 Alpha virt. eigenvalues --    2.12781   2.15405   2.15412   2.38156   2.69051
 Alpha virt. eigenvalues --    2.69052   2.89338   2.89547   3.18562   3.28518
 Alpha virt. eigenvalues --    3.28762   3.29149   3.77407   3.77994   3.91222
 Alpha virt. eigenvalues --    3.91222   3.93960   3.93960   3.95900   3.95903
 Alpha virt. eigenvalues --    4.03629   4.03631   4.04719   4.05393   4.08015
 Alpha virt. eigenvalues --    4.08016   4.08476   4.14081   4.14114   4.24977
 Alpha virt. eigenvalues --    4.26457   4.27104   4.66331   4.66762   4.67399
 Alpha virt. eigenvalues --    5.26076   6.65510   6.65510   6.82947   6.82947
 Alpha virt. eigenvalues --    7.07350   7.07492   7.33114   7.92139   8.39646
 Alpha virt. eigenvalues --    8.39710   8.57019   8.57019   9.06326   9.06401
 Alpha virt. eigenvalues --    9.28132   9.46137  13.94627
  Beta  occ. eigenvalues --   -7.72350  -0.57697  -0.36616
  Beta virt. eigenvalues --    0.02212   0.02664   0.03325   0.04772   0.07567
  Beta virt. eigenvalues --    0.07962   0.10501   0.13715   0.13818   0.14088
  Beta virt. eigenvalues --    0.14530   0.14535   0.20423   0.23941   0.27117
  Beta virt. eigenvalues --    0.27211   0.30488   0.30714   0.34818   0.38777
  Beta virt. eigenvalues --    0.46025   0.46025   0.46290   0.46292   0.48084
  Beta virt. eigenvalues --    0.48338   0.49778   0.49811   0.52455   0.56169
  Beta virt. eigenvalues --    0.56388   0.56978   0.69554   0.78805   0.78934
  Beta virt. eigenvalues --    0.79979   0.79984   0.80071   0.99021   0.99108
  Beta virt. eigenvalues --    1.19160   1.19721   1.20093   1.27708   1.35482
  Beta virt. eigenvalues --    1.35482   1.36766   1.36766   1.38105   1.38255
  Beta virt. eigenvalues --    1.38856   1.38962   1.40251   1.43140   1.43147
  Beta virt. eigenvalues --    1.44590   1.44594   1.50373   1.52618   1.53117
  Beta virt. eigenvalues --    1.56614   1.56615   1.62130   1.79083   1.79083
  Beta virt. eigenvalues --    1.84075   1.84397   1.97880   2.11732   2.11969
  Beta virt. eigenvalues --    2.12781   2.15405   2.15412   2.38156   2.69051
  Beta virt. eigenvalues --    2.69052   2.89338   2.89547   3.18562   3.28518
  Beta virt. eigenvalues --    3.28762   3.29149   3.77407   3.77994   3.91222
  Beta virt. eigenvalues --    3.91222   3.93960   3.93960   3.95900   3.95903
  Beta virt. eigenvalues --    4.03629   4.03631   4.04719   4.05393   4.08015
  Beta virt. eigenvalues --    4.08016   4.08476   4.14081   4.14114   4.24977
  Beta virt. eigenvalues --    4.26457   4.27104   4.66331   4.66762   4.67399
  Beta virt. eigenvalues --    5.26076   6.65510   6.65510   6.82947   6.82947
  Beta virt. eigenvalues --    7.07350   7.07492   7.33114   7.92139   8.39646
  Beta virt. eigenvalues --    8.39710   8.57019   8.57019   9.06326   9.06401
  Beta virt. eigenvalues --    9.28132   9.46137  13.94627
          Condensed to atoms (all electrons):
               1          2
     1  B    4.566056   0.277755
     2  H    0.277755   0.878434
          Atomic-Atomic Spin Densities.
               1          2
     1  B    0.000000   0.000000
     2  H    0.000000   0.000000
 Mulliken charges and spin densities:
               1          2
     1  B    0.156189   0.000000
     2  H   -0.156189   0.000000
 Sum of Mulliken charges =   0.00000   0.00000
 Mulliken charges and spin densities with hydrogens summed into heavy atoms:
               1          2
     1  B    0.000000   0.000000
 Electronic spatial extent (au):  <R**2>=             26.3070
 Charge=              0.0000 electrons
 Dipole moment (field-independent basis, Debye):
    X=              0.0000    Y=              0.0000    Z=             -0.1632  Tot=              0.1632
 Quadrupole moment (field-independent basis, Debye-Ang):
   XX=             -7.6033   YY=             -6.8548   ZZ=            -10.6789
   XY=              0.0000   XZ=              0.0000   YZ=             -0.0000
 Traceless Quadrupole moment (field-independent basis, Debye-Ang):
   XX=              0.7757   YY=              1.5242   ZZ=             -2.2999
   XY=              0.0000   XZ=              0.0000   YZ=             -0.0000
 Octapole moment (field-independent basis, Debye-Ang**2):
  XXX=              0.0000  YYY=             -0.0000  ZZZ=             -1.7222  XYY=              0.0000
  XXY=              0.0000  XXZ=             -0.4168  XZZ=              0.0000  YZZ=              0.0000
  YYZ=             -0.0662  XYZ=              0.0000
 Hexadecapole moment (field-independent basis, Debye-Ang**3):
 XXXX=            -11.5007 YYYY=             -9.4580 ZZZZ=            -36.9203 XXXY=              0.0000
 XXXZ=              0.0000 YYYX=              0.0000 YYYZ=              0.0000 ZZZX=              0.0000
 ZZZY=             -0.0000 XXYY=             -3.4931 XXZZ=             -8.4735 YYZZ=             -7.9897
 XXYZ=             -0.0000 YYXZ=              0.0000 ZZXY=              0.0000
 N-N= 1.653678784125D+00 E-N=-6.107659735490D+01  KE= 2.489500542130D+01
 Leave Link  601 at Sun May 22 18:38:42 2022, MaxMem=   104857600 cpu:               0.1 elap:               0.1
 (Enter /apps/software/g16/l9999.exe)
 1\1\GINC-CNODE13\SP\UCCSD-FC\Aug-CC-pVQZ\B1H1\LCZ\22-May-2022\0\\#p UH
 F/aug-cc-pVQZ guess=read CCSD=FC\\BH UCCSD at 1.6 Angstrom\\0,1\B,0,0.
 ,0.,0.\H,0,1.6,0.,0.\\Version=ES64L-G16RevA.03\HF=-25.1037409\MP2=-25.
 1730171\MP3=-25.1872685\MP4D=-25.1933048\MP4DQ=-25.1916736\PUHF=-25.11
 34491\PMP2-0=-25.182416\PMP3-0=-25.1959571\MP4SDQ=-25.1926823\CCSD=-25
 .2063747\S2=0.383981\S2-1=0.35936\S2A=0.00494\RMSD=2.794e-10\PG=C*V [C
 *(H1B1)]\\@


 I SUPPOSE A BABY LLAMA HAS A MMAMA AND A PPOPA.
     -- RICHARD AMOUR
 Job cpu time:       0 days  0 hours  0 minutes 24.3 seconds.
 Elapsed time:       0 days  0 hours  0 minutes 24.3 seconds.
 File lengths (MBytes):  RWF=    377 Int=      0 D2E=      0 Chk=     67 Scr=      1
 Normal termination of Gaussian 16 at Sun May 22 18:38:42 2022.

Sender: Unischeduler System <lcz@mgt01>
Subject: Job 134213: <#!/bin/bash
#BSUB -J intel
#BSUB -o BH-1.6-UCCSD-G.out
#BSUB -n 8
#BSUB -q cqueue
#BSUB -R span[hosts=1]
export g16root=/apps/software
source /apps/software/g16/bsd/g16.profile
export GAUSS_SCRDIR=/scratch
/apps/software/g16/g16 < BH-1.6-UCCSD-G.inp > BH-1.6-UCCSD-G.out> Done

Job <#!/bin/bash
#BSUB -J intel
#BSUB -o BH-1.6-UCCSD-G.out
#BSUB -n 8
#BSUB -q cqueue
#BSUB -R span[hosts=1]
export g16root=/apps/software
source /apps/software/g16/bsd/g16.profile
export GAUSS_SCRDIR=/scratch
/apps/software/g16/g16 < BH-1.6-UCCSD-G.inp > BH-1.6-UCCSD-G.out> was submitted from host <mgt01> by user <lcz>.
Job was executed on host(s) <8*cnode13>, in queue <cqueue>, as user <lcz>.
</apps/users/lcz> was used as the home directory.
</apps/users/lcz/exe13/UCCSD> was used as the working directory.
Started at 2022-05-22 18:38:17
Results reported at 2022-05-22 18:38:42

Your job looked like:

------------------------------------------------------------
# User input
#!/bin/bash
#BSUB -J intel
#BSUB -o BH-1.6-UCCSD-G.out
#BSUB -n 8
#BSUB -q cqueue
#BSUB -R span[hosts=1]
export g16root=/apps/software
source /apps/software/g16/bsd/g16.profile
export GAUSS_SCRDIR=/scratch
/apps/software/g16/g16 < BH-1.6-UCCSD-G.inp > BH-1.6-UCCSD-G.out
------------------------------------------------------------

Successfully completed.

Resource usage summary:

    CPU time   :           21.07 sec.
    Max Memory :               498 MB
    Max Processes  :               5


The output (if any) follows:

