 Entering Gaussian System, Link 0=/apps/software/g16/g16
 Initial command:
 /apps/software/g16/l1.exe "/scratch/Gau-310438.inp" -scrdir="/scratch/"
 Entering Link 1 = /apps/software/g16/l1.exe PID=    310439.
  
 Copyright (c) 1988,1990,1992,1993,1995,1998,2003,2009,2016,
            Gaussian, Inc.  All Rights Reserved.
  
 This is part of the Gaussian(R) 16 program.  It is based on
 the Gaussian(R) 09 system (copyright 2009, Gaussian, Inc.),
 the Gaussian(R) 03 system (copyright 2003, Gaussian, Inc.),
 the Gaussian(R) 98 system (copyright 1998, Gaussian, Inc.),
 the Gaussian(R) 94 system (copyright 1995, Gaussian, Inc.),
 the Gaussian 92(TM) system (copyright 1992, Gaussian, Inc.),
 the Gaussian 90(TM) system (copyright 1990, Gaussian, Inc.),
 the Gaussian 88(TM) system (copyright 1988, Gaussian, Inc.),
 the Gaussian 86(TM) system (copyright 1986, Carnegie Mellon
 University), and the Gaussian 82(TM) system (copyright 1983,
 Carnegie Mellon University). Gaussian is a federally registered
 trademark of Gaussian, Inc.
  
 This software contains proprietary and confidential information,
 including trade secrets, belonging to Gaussian, Inc.
  
 This software is provided under written license and may be
 used, copied, transmitted, or stored only in accord with that
 written license.
  
 The following legend is applicable only to US Government
 contracts under FAR:
  
                    RESTRICTED RIGHTS LEGEND
  
 Use, reproduction and disclosure by the US Government is
 subject to restrictions as set forth in subparagraphs (a)
 and (c) of the Commercial Computer Software - Restricted
 Rights clause in FAR 52.227-19.
  
 Gaussian, Inc.
 340 Quinnipiac St., Bldg. 40, Wallingford CT 06492
  
  
 ---------------------------------------------------------------
 Warning -- This program may not be used in any manner that
 competes with the business of Gaussian, Inc. or will provide
 assistance to any competitor of Gaussian, Inc.  The licensee
 of this program is prohibited from giving any competitor of
 Gaussian, Inc. access to this program.  By using this program,
 the user acknowledges that Gaussian, Inc. is engaged in the
 business of creating and licensing software in the field of
 computational chemistry and represents and warrants to the
 licensee that it is not a competitor of Gaussian, Inc. and that
 it will not use this program in any manner prohibited above.
 ---------------------------------------------------------------
  

 Cite this work as:
 Gaussian 16, Revision A.03,
 M. J. Frisch, G. W. Trucks, H. B. Schlegel, G. E. Scuseria, 
 M. A. Robb, J. R. Cheeseman, G. Scalmani, V. Barone, 
 G. A. Petersson, H. Nakatsuji, X. Li, M. Caricato, A. V. Marenich, 
 J. Bloino, B. G. Janesko, R. Gomperts, B. Mennucci, H. P. Hratchian, 
 J. V. Ortiz, A. F. Izmaylov, J. L. Sonnenberg, D. Williams-Young, 
 F. Ding, F. Lipparini, F. Egidi, J. Goings, B. Peng, A. Petrone, 
 T. Henderson, D. Ranasinghe, V. G. Zakrzewski, J. Gao, N. Rega, 
 G. Zheng, W. Liang, M. Hada, M. Ehara, K. Toyota, R. Fukuda, 
 J. Hasegawa, M. Ishida, T. Nakajima, Y. Honda, O. Kitao, H. Nakai, 
 T. Vreven, K. Throssell, J. A. Montgomery, Jr., J. E. Peralta, 
 F. Ogliaro, M. J. Bearpark, J. J. Heyd, E. N. Brothers, K. N. Kudin, 
 V. N. Staroverov, T. A. Keith, R. Kobayashi, J. Normand, 
 K. Raghavachari, A. P. Rendell, J. C. Burant, S. S. Iyengar, 
 J. Tomasi, M. Cossi, J. M. Millam, M. Klene, C. Adamo, R. Cammi, 
 J. W. Ochterski, R. L. Martin, K. Morokuma, O. Farkas, 
 J. B. Foresman, and D. J. Fox, Gaussian, Inc., Wallingford CT, 2016.
 
 ******************************************
 Gaussian 16:  ES64L-G16RevA.03 25-Dec-2016
                22-May-2022 
 ******************************************
 %oldchk=BH-1.8-UHF-G.chk
 %chk=BH-1.8-UCCSD-G.chk
 Copying data from "BH-1.8-UHF-G.chk" to current chk file "BH-1.8-UCCSD-G.chk"
 IOpt=  2 FromEx=T IUOpen= 4 IOptOp= 5 NList=   0 IFRang= 0 IUIn= 4 IUOut= 2.
 -------------------------------------
 #p UHF/aug-cc-pVQZ guess=read CCSD=FC
 -------------------------------------
 1/38=1,172=1/1;
 2/12=2,17=6,18=5,40=1/2;
 3/5=16,6=2,7=10,11=2,25=1,30=1,116=2/1,2,3;
 4/5=1/1;
 5/5=2,38=6/2;
 8/6=4,9=120000,10=1/1,4;
 9/5=7/13;
 6/7=2,8=2,9=2,10=2/1;
 99/5=1,9=1/99;
 Leave Link    1 at Sun May 22 18:34:08 2022, MaxMem=   104857600 cpu:               0.0 elap:               0.0
 (Enter /apps/software/g16/l101.exe)
 ------------------------
 BH UCCSD at 1.8 Angstrom
 ------------------------
 Symbolic Z-matrix:
 Charge =  0 Multiplicity = 1
 B                     0.        0.        0. 
 H                     1.8       0.        0. 
 
 ITRead=  0  0
 MicOpt= -1 -1
 NAtoms=      2 NQM=        2 NQMF=       0 NMMI=      0 NMMIF=      0
                NMic=       0 NMicF=      0.
                    Isotopes and Nuclear Properties:
 (Nuclear quadrupole moments (NQMom) in fm**2, nuclear magnetic moments (NMagM)
  in nuclear magnetons)

  Atom         1           2
 IAtWgt=          11           1
 AtmWgt=  11.0093053   1.0078250
 NucSpn=           3           1
 AtZEff=  -0.0000000  -0.0000000
 NQMom=    4.0590000   0.0000000
 NMagM=    2.6886370   2.7928460
 AtZNuc=   5.0000000   1.0000000
 Leave Link  101 at Sun May 22 18:34:08 2022, MaxMem=   104857600 cpu:               0.1 elap:               0.1
 (Enter /apps/software/g16/l202.exe)
                          Input orientation:                          
 ---------------------------------------------------------------------
 Center     Atomic      Atomic             Coordinates (Angstroms)
 Number     Number       Type             X           Y           Z
 ---------------------------------------------------------------------
      1          5           0        0.000000    0.000000    0.000000
      2          1           0        1.800000    0.000000    0.000000
 ---------------------------------------------------------------------
 Stoichiometry    BH
 Framework group  C*V[C*(HB)]
 Deg. of freedom     1
 Full point group                 C*V     NOp   4
 Largest Abelian subgroup         C2V     NOp   4
 Largest concise Abelian subgroup C1      NOp   1
                         Standard orientation:                         
 ---------------------------------------------------------------------
 Center     Atomic      Atomic             Coordinates (Angstroms)
 Number     Number       Type             X           Y           Z
 ---------------------------------------------------------------------
      1          5           0        0.000000    0.000000    0.300000
      2          1           0        0.000000    0.000000   -1.500000
 ---------------------------------------------------------------------
 Rotational constants (GHZ):           0.0000000         168.9382155         168.9382155
 Leave Link  202 at Sun May 22 18:34:08 2022, MaxMem=   104857600 cpu:               0.0 elap:               0.0
 (Enter /apps/software/g16/l301.exe)
 Standard basis: Aug-CC-pVQZ (5D, 7F)
 Ernie: Thresh=  0.10000D-02 Tol=  0.10000D-05 Strict=F.
 Ernie:  4 primitive shells out of 54 were deleted.
 There are    68 symmetry adapted cartesian basis functions of A1  symmetry.
 There are    18 symmetry adapted cartesian basis functions of A2  symmetry.
 There are    37 symmetry adapted cartesian basis functions of B1  symmetry.
 There are    37 symmetry adapted cartesian basis functions of B2  symmetry.
 There are    50 symmetry adapted basis functions of A1  symmetry.
 There are    16 symmetry adapted basis functions of A2  symmetry.
 There are    30 symmetry adapted basis functions of B1  symmetry.
 There are    30 symmetry adapted basis functions of B2  symmetry.
   126 basis functions,   180 primitive gaussians,   160 cartesian basis functions
     3 alpha electrons        3 beta electrons
       nuclear repulsion energy         1.4699366970 Hartrees.
 IExCor=    0 DFT=F Ex=HF Corr=None ExCW=0 ScaHFX=  1.000000
 ScaDFX=  1.000000  1.000000  1.000000  1.000000 ScalE2=  1.000000  1.000000
 IRadAn=      5 IRanWt=     -1 IRanGd=            0 ICorTp=0 IEmpDi=  4
 NAtoms=    2 NActive=    2 NUniq=    2 SFac= 1.00D+00 NAtFMM=   60 NAOKFM=F Big=F
 Integral buffers will be    131072 words long.
 Raffenetti 2 integral format.
 Two-electron integral symmetry is turned on.
 Leave Link  301 at Sun May 22 18:34:08 2022, MaxMem=   104857600 cpu:               0.1 elap:               0.0
 (Enter /apps/software/g16/l302.exe)
 NPDir=0 NMtPBC=     1 NCelOv=     1 NCel=       1 NClECP=     1 NCelD=      1
         NCelK=      1 NCelE2=     1 NClLst=     1 CellRange=     0.0.
 One-electron integrals computed using PRISM.
 One-electron integral symmetry used in STVInt
 NBasis=   126 RedAO= T EigKep=  3.76D-04  NBF=    50    16    30    30
 NBsUse=   126 1.00D-06 EigRej= -1.00D+00 NBFU=    50    16    30    30
 Leave Link  302 at Sun May 22 18:34:08 2022, MaxMem=   104857600 cpu:               0.1 elap:               0.1
 (Enter /apps/software/g16/l303.exe)
 DipDrv:  MaxL=1.
 Leave Link  303 at Sun May 22 18:34:08 2022, MaxMem=   104857600 cpu:               0.0 elap:               0.0
 (Enter /apps/software/g16/l401.exe)
 Initial guess from the checkpoint file:  "BH-1.8-UCCSD-G.chk"
 B after Tr=     0.000000    0.000000    0.000000
         Rot=    1.000000    0.000000    0.000000    0.000000 Ang=   0.00 deg.
 Guess basis will be translated and rotated to current coordinates.
 JPrj=2 DoOrth=T DoCkMO=T.
 Initial guess orbital symmetries:
 Alpha Orbitals:
       Occupied  (SG) (?A) (?A)
       Virtual   (?A) (?A) (?A) (?A) (?A) (?A) (?A) (?B) (?B) (?B)
                 (?B) (?B) (?A) (?A) (PI) (PI) (?A) (?A) (?A) (?A)
                 (?C) (?C) (?C) (?C) (?C) (?C) (?C) (?C) (SG) (PI)
                 (PI) (SG) (SG) (DLTA) (DLTA) (?D) (?D) (?D) (PI)
                 (PI) (SG) (?E) (?E) (?E) (PHI) (PHI) (?F) (?F)
                 (?F) (?F) (?F) (?F) (?F) (?F) (?F) (?F) (?F) (?G)
                 (?G) (?G) (?G) (?G) (SG) (PHI) (PHI) (PI) (PI)
                 (SG) (SG) (PI) (PI) (DLTA) (DLTA) (SG) (DLTA)
                 (DLTA) (PI) (PI) (SG) (PI) (PI) (SG) (PI) (PI)
                 (?H) (?H) (?H) (?H) (?H) (?H) (?H) (?H) (?H) (?H)
                 (?H) (PHI) (PHI) (?H) (?H) (?H) (PI) (PI) (PI)
                 (PI) (SG) (SG) (PHI) (PHI) (DLTA) (DLTA) (PI)
                 (PI) (SG) (SG) (PI) (PI) (DLTA) (DLTA) (SG) (PI)
                 (PI) (SG) (SG)
 Beta  Orbitals:
       Occupied  (SG) (?A) (?A)
       Virtual   (?A) (?A) (?A) (?A) (?A) (?A) (?A) (?B) (?B) (?B)
                 (?B) (?B) (?A) (?A) (PI) (PI) (?A) (?A) (?A) (?A)
                 (?C) (?C) (?C) (?C) (?C) (?C) (?C) (?C) (SG) (PI)
                 (PI) (SG) (SG) (DLTA) (DLTA) (?D) (?D) (?D) (PI)
                 (PI) (SG) (?E) (?E) (?E) (PHI) (PHI) (?F) (?F)
                 (?F) (?F) (?F) (?F) (?F) (?F) (?F) (?F) (?F) (?G)
                 (?G) (?G) (?G) (?G) (SG) (PHI) (PHI) (PI) (PI)
                 (SG) (SG) (PI) (PI) (DLTA) (DLTA) (SG) (DLTA)
                 (DLTA) (PI) (PI) (SG) (PI) (PI) (SG) (PI) (PI)
                 (?H) (?H) (?H) (?H) (?H) (?H) (?H) (?H) (?H) (?H)
                 (?H) (PHI) (PHI) (?H) (?H) (?H) (PI) (PI) (PI)
                 (PI) (SG) (SG) (PHI) (PHI) (DLTA) (DLTA) (PI)
                 (PI) (SG) (SG) (PI) (PI) (DLTA) (DLTA) (SG) (PI)
                 (PI) (SG) (SG)
 Initial guess <Sx>= 0.0000 <Sy>= 0.0000 <Sz>= 0.0000 <S**2>= 0.3316 S= 0.2626
 Leave Link  401 at Sun May 22 18:34:08 2022, MaxMem=   104857600 cpu:               0.1 elap:               0.1
 (Enter /apps/software/g16/l502.exe)
 Keep R1 and R2 ints in memory in symmetry-blocked form, NReq=40143665.
 FoFCou: FMM=F IPFlag=           0 FMFlag=           0 FMFlg1=           0
         NFxFlg=           0 DoJE=F BraDBF=F KetDBF=F FulRan=T
         wScrn=  0.000000 ICntrl=       600 IOpCl=  0 I1Cent=           0 NGrid=           0
         NMat0=    1 NMatS0=   8001 NMatT0=    0 NMatD0=    1 NMtDS0=    0 NMtDT0=    0
 Petite list used in FoFCou.
 UHF open shell SCF:
 Using DIIS extrapolation, IDIIS=  1040.
 NGot=   104857600 LenX=    88563632 LenY=    88537591
 Requested convergence on RMS density matrix=1.00D-08 within 128 cycles.
 Requested convergence on MAX density matrix=1.00D-06.
 Requested convergence on             energy=1.00D-06.
 No special actions if energy rises.
 An orbital has undefined symmetry, so N**3 symmetry is turned off.

 Cycle   1  Pass 1  IDiag  1:
 Density matrix breaks symmetry, PCut= 1.00D-07
 Density matrix has no symmetry -- integrals replicated.
 E= -25.0771558449032    
 DIIS: error= 7.38D-09 at cycle   1 NSaved=   1.
 NSaved= 1 IEnMin= 1 EnMin= -25.0771558449032     IErMin= 1 ErrMin= 7.38D-09
 ErrMax= 7.38D-09  0.00D+00 EMaxC= 1.00D-01 BMatC= 6.91D-15 BMatP= 6.91D-15
 IDIUse=1 WtCom= 1.00D+00 WtEn= 0.00D+00
 Coeff-Com:  0.100D+01
 Coeff:      0.100D+01
 Gap=     0.375 Goal=   None    Shift=    0.000
 Gap=     0.375 Goal=   None    Shift=    0.000
 RMSDP=5.17D-10 MaxDP=1.41D-08              OVMax= 4.91D-08

 Density matrix breaks symmetry, PCut= 1.00D-07
 Density matrix has no symmetry -- integrals replicated.
 SCF Done:  E(UHF) =  -25.0771558449     A.U. after    1 cycles
            NFock=  1  Conv=0.52D-09     -V/T= 2.0096
 <Sx>= 0.0000 <Sy>= 0.0000 <Sz>= 0.0000 <S**2>= 0.3316 S= 0.2626
 <L.S>=  0.00000000000    
 KE= 2.483756479382D+01 PE=-6.059779525413D+01 EE= 9.213137918406D+00
 Annihilation of the first spin contaminant:
 S**2 before annihilation     0.3316,   after     0.0044
 Leave Link  502 at Sun May 22 18:34:12 2022, MaxMem=   104857600 cpu:               3.7 elap:               3.7
 (Enter /apps/software/g16/l801.exe)
 Windowed orbitals will be sorted by symmetry type.
 ExpMin= 1.88D-02 ExpMax= 2.39D+04 ExpMxC= 2.30D+02 IAcc=3 IRadAn=         5 AccDes= 0.00D+00
 HarFok:  IExCor=  205 AccDes= 0.00D+00 IRadAn=         5 IDoV=-2 UseB2=F ITyADJ=14
 ICtDFT= 12500011 ScaDFX=  1.000000  1.000000  1.000000  1.000000
 DSYEVD-2 returned Info=        3401 IAlg= 4 N=    80 NDim=    80 NE2=     1309686 trying  DSYEV.
 Largest valence mixing into a core orbital is  3.72D-04
 Largest core mixing into a valence orbital is  1.07D-04
 Largest valence mixing into a core orbital is  3.72D-04
 Largest core mixing into a valence orbital is  1.07D-04
 Range of M.O.s used for correlation:     2   126
 NBasis=   126 NAE=     3 NBE=     3 NFC=     1 NFV=     0
 NROrb=    125 NOA=     2 NOB=     2 NVA=   123 NVB=   123

 **** Warning!!: The largest alpha MO coefficient is  0.18532486D+02


 **** Warning!!: The largest beta MO coefficient is  0.18532486D+02

 Leave Link  801 at Sun May 22 18:34:12 2022, MaxMem=   104857600 cpu:               0.1 elap:               0.1
 (Enter /apps/software/g16/l804.exe)
 Open-shell transformation, MDV=   104857600 ITran=4 ISComp=1.
 Unit  1 TFree=        991730 TCopy=        422292.
 Semi-Direct transformation.
 ModeAB=           2 MOrb=             2 LenV=     104171010
 LASXX=      1914004 LTotXX=     1914004 LenRXX=     1914004
 LTotAB=     1960875 MaxLAS=     3220000 LenRXY=     3220000
 NonZer=     3828008 LenScr=     6455808 LnRSAI=           0
 LnScr1=           0 LExtra=           0 Total=     11589812
 MaxDsk=          -1 SrtSym=           F ITran=            4
 DoSDTr:  NPSUse=  1
 JobTyp=1 Pass  1:  I=   1 to   2.
 (rs|ai) integrals will be sorted in core.
 Complete sort for first half transformation.
 First half transformation complete.
 Complete sort for second half transformation.
 Second half transformation complete.
 ModeAB=           2 MOrb=             2 LenV=     104171010
 LASXX=      1914004 LTotXX=     1914004 LenRXX=     3220000
 LTotAB=     1898874 MaxLAS=     3220000 LenRXY=     1898874
 NonZer=     3828008 LenScr=     6455808 LnRSAI=           0
 LnScr1=           0 LExtra=           0 Total=     11574682
 MaxDsk=          -1 SrtSym=           F ITran=            4
 DoSDTr:  NPSUse=  1
 JobTyp=2 Pass  1:  I=   1 to   2.
 (rs|ai) integrals will be sorted in core.
 Complete sort for first half transformation.
 First half transformation complete.
 Complete sort for second half transformation.
 Second half transformation complete.
 SymMOI:  orbitals are not symmetric.
 Spin components of T(2) and E(2):
     alpha-alpha T2 =       0.1363696725D-02 E2=     -0.2560499625D-02
     alpha-beta  T2 =       0.3685254257D-01 E2=     -0.6698770485D-01
     beta-beta   T2 =       0.1363696725D-02 E2=     -0.2560499625D-02
 ANorm=    0.1019597929D+01
 E2 =    -0.7210870410D-01 EUMP2 =    -0.25149264549001D+02
 (S**2,0)=  0.33161D+00           (S**2,1)=  0.30741D+00
 E(PUHF)=      -0.25086305725D+02        E(PMP2)=      -0.25158082780D+02
 Leave Link  804 at Sun May 22 18:34:22 2022, MaxMem=   104857600 cpu:              10.2 elap:              10.2
 (Enter /apps/software/g16/l913.exe)
 CIDS:  MDV=   104857600.
 Frozen-core window:  NFC=   1 NFV=   0.
 IFCWin=0 IBDFC=1 NFBD=     0     0 NFCmp=     0     0 NFFFC=     0     0
 Using original routines for 1st iteration.
 Using DD4UQ or CC4UQ for 2nd and later iterations.
 Keep R2 and R3 ints in memory in symmetry-blocked form, NReq=40147367.
 FoFCou: FMM=F IPFlag=           0 FMFlag=           0 FMFlg1=           0
         NFxFlg=           0 DoJE=F BraDBF=F KetDBF=F FulRan=T
         wScrn=  0.000000 ICntrl=       600 IOpCl=  0 I1Cent=           0 NGrid=           0
         NMat0=    1 NMatS0=   8001 NMatT0=    0 NMatD0=    1 NMtDS0=    0 NMtDT0=    0
 Petite list used in FoFCou.
 CIDS: In Core Option IDoMem=           1.
 Coupled Cluster theory with single and double substitutions
 ===========================================================
 Iterations=  50 Convergence= 0.100D-06
 Produce multiple copies of IABC intergrals
 Iteration Nr.   1
 **********************
 DD1Dir will call FoFMem   1 times, MxPair=        10
 NAB=     4 NAA=     1 NBB=     1.
 E(PMP3)=      -0.25172902472D+02
 MP4(R+Q)=  0.19498253D-02
 Maximum subspace dimension=  5
 A-vector RMS=  4.1825269D-03 Max=  1.4923480D-02 conv= 1.00D-05.
 RLE energy=       -0.0888996923
 E3=       -0.15564822D-01        EUMP3=      -0.25164829371D+02
 E4(DQ)=   -0.50656900D-02        UMP4(DQ)=   -0.25169895061D+02
 E4(SDQ)=  -0.62872929D-02        UMP4(SDQ)=  -0.25171116664D+02
 VARIATIONAL ENERGIES WITH THE FIRST-ORDER WAVEFUNCTION:
 DE(Corr)= -0.85728284E-01 E(Corr)=     -25.162884129    
 NORM(A)=   0.10364689D+01
 Iteration Nr.   2
 **********************
 DD1Dir will call FoFMem   1 times, MxPair=        10
 NAB=     4 NAA=     1 NBB=     1.
 A-vector RMS=  3.1214922D-03 Max=  1.1437907D-02 conv= 1.00D-05.
 RLE energy=       -0.0997499349
 DE(Corr)= -0.93952966E-01 E(CORR)=     -25.171108811     Delta=-8.22D-03
 NORM(A)=   0.10555732D+01
 Iteration Nr.   3
 **********************
 DD1Dir will call FoFMem   1 times, MxPair=        10
 NAB=     4 NAA=     1 NBB=     1.
 A-vector RMS=  2.6758448D-03 Max=  1.1519639D-02 conv= 1.00D-05.
 RLE energy=       -0.1031615163
 DE(Corr)= -0.99733045E-01 E(CORR)=     -25.176888890     Delta=-5.78D-03
 NORM(A)=   0.10749293D+01
 Iteration Nr.   4
 **********************
 DD1Dir will call FoFMem   1 times, MxPair=        10
 NAB=     4 NAA=     1 NBB=     1.
 A-vector RMS=  1.9447206D-03 Max=  9.2223264D-03 conv= 1.00D-05.
 RLE energy=       -0.1065662598
 DE(Corr)= -0.10346151     E(CORR)=     -25.180617356     Delta=-3.73D-03
 NORM(A)=   0.11031979D+01
 Iteration Nr.   5
 **********************
 DD1Dir will call FoFMem   1 times, MxPair=        10
 NAB=     4 NAA=     1 NBB=     1.
 A-vector RMS=  1.1696853D-03 Max=  5.8098453D-03 conv= 1.00D-05.
 RLE energy=       -0.1072090537
 DE(Corr)= -0.10627958     E(CORR)=     -25.183435430     Delta=-2.82D-03
 NORM(A)=   0.11215560D+01
 Iteration Nr.   6
 **********************
 DD1Dir will call FoFMem   1 times, MxPair=        10
 NAB=     4 NAA=     1 NBB=     1.
 A-vector RMS=  5.6714796D-04 Max=  2.3702618D-03 conv= 1.00D-05.
 RLE energy=       -0.1075509611
 DE(Corr)= -0.10720489     E(CORR)=     -25.184360736     Delta=-9.25D-04
 NORM(A)=   0.11292099D+01
 Iteration Nr.   7
 **********************
 DD1Dir will call FoFMem   1 times, MxPair=        10
 NAB=     4 NAA=     1 NBB=     1.
 A-vector RMS=  2.7428279D-04 Max=  9.8260158D-04 conv= 1.00D-05.
 RLE energy=       -0.1076823568
 DE(Corr)= -0.10753193     E(CORR)=     -25.184687778     Delta=-3.27D-04
 NORM(A)=   0.11313490D+01
 Iteration Nr.   8
 **********************
 DD1Dir will call FoFMem   1 times, MxPair=        10
 NAB=     4 NAA=     1 NBB=     1.
 A-vector RMS=  1.1596630D-04 Max=  4.2828516D-04 conv= 1.00D-05.
 RLE energy=       -0.1076405906
 DE(Corr)= -0.10763118     E(CORR)=     -25.184787020     Delta=-9.92D-05
 NORM(A)=   0.11318517D+01
 Iteration Nr.   9
 **********************
 DD1Dir will call FoFMem   1 times, MxPair=        10
 NAB=     4 NAA=     1 NBB=     1.
 A-vector RMS=  3.9979372D-05 Max=  1.5230429D-04 conv= 1.00D-05.
 RLE energy=       -0.1076400068
 DE(Corr)= -0.10763230     E(CORR)=     -25.184788144     Delta=-1.12D-06
 NORM(A)=   0.11321791D+01
 Iteration Nr.  10
 **********************
 DD1Dir will call FoFMem   1 times, MxPair=        10
 NAB=     4 NAA=     1 NBB=     1.
 A-vector RMS=  1.3761772D-05 Max=  5.9351823D-05 conv= 1.00D-05.
 RLE energy=       -0.1076218605
 DE(Corr)= -0.10763315     E(CORR)=     -25.184788990     Delta=-8.46D-07
 NORM(A)=   0.11321727D+01
 Iteration Nr.  11
 **********************
 DD1Dir will call FoFMem   1 times, MxPair=        10
 NAB=     4 NAA=     1 NBB=     1.
 A-vector RMS=  9.0445019D-06 Max=  2.6645243D-05 conv= 1.00D-05.
 RLE energy=       -0.1076182173
 DE(Corr)= -0.10762439     E(CORR)=     -25.184780239     Delta= 8.75D-06
 NORM(A)=   0.11321370D+01
 Iteration Nr.  12
 **********************
 DD1Dir will call FoFMem   1 times, MxPair=        10
 NAB=     4 NAA=     1 NBB=     1.
 A-vector RMS=  5.8471179D-06 Max=  2.3063304D-05 conv= 1.00D-05.
 RLE energy=       -0.1076128853
 DE(Corr)= -0.10761873     E(CORR)=     -25.184774580     Delta= 5.66D-06
 NORM(A)=   0.11320789D+01
 Iteration Nr.  13
 **********************
 DD1Dir will call FoFMem   1 times, MxPair=        10
 NAB=     4 NAA=     1 NBB=     1.
 A-vector RMS=  4.1380264D-06 Max=  1.9422088D-05 conv= 1.00D-05.
 RLE energy=       -0.1076109286
 DE(Corr)= -0.10761416     E(CORR)=     -25.184770006     Delta= 4.57D-06
 NORM(A)=   0.11320318D+01
 Iteration Nr.  14
 **********************
 DD1Dir will call FoFMem   1 times, MxPair=        10
 NAB=     4 NAA=     1 NBB=     1.
 A-vector RMS=  2.7918407D-06 Max=  1.3329260D-05 conv= 1.00D-05.
 RLE energy=       -0.1076090256
 DE(Corr)= -0.10761142     E(CORR)=     -25.184767260     Delta= 2.75D-06
 NORM(A)=   0.11319885D+01
 Iteration Nr.  15
 **********************
 DD1Dir will call FoFMem   1 times, MxPair=        10
 NAB=     4 NAA=     1 NBB=     1.
 A-vector RMS=  1.5908990D-06 Max=  7.4047654D-06 conv= 1.00D-05.
 RLE energy=       -0.1076079690
 DE(Corr)= -0.10760934     E(CORR)=     -25.184765187     Delta= 2.07D-06
 NORM(A)=   0.11319601D+01
 Iteration Nr.  16
 **********************
 DD1Dir will call FoFMem   1 times, MxPair=        10
 NAB=     4 NAA=     1 NBB=     1.
 A-vector RMS=  6.4477499D-07 Max=  2.3172167D-06 conv= 1.00D-05.
 RLE energy=       -0.1076077246
 DE(Corr)= -0.10760808     E(CORR)=     -25.184763927     Delta= 1.26D-06
 NORM(A)=   0.11319513D+01
 Iteration Nr.  17
 **********************
 DD1Dir will call FoFMem   1 times, MxPair=        10
 NAB=     4 NAA=     1 NBB=     1.
 A-vector RMS=  2.7182646D-07 Max=  8.7449652D-07 conv= 1.00D-05.
 RLE energy=       -0.1076075510
 DE(Corr)= -0.10760773     E(CORR)=     -25.184763570     Delta= 3.57D-07
 NORM(A)=   0.11319481D+01
 Iteration Nr.  18
 **********************
 DD1Dir will call FoFMem   1 times, MxPair=        10
 NAB=     4 NAA=     1 NBB=     1.
 A-vector RMS=  1.3955915D-07 Max=  4.9961851D-07 conv= 1.00D-05.
 RLE energy=       -0.1076075189
 DE(Corr)= -0.10760757     E(CORR)=     -25.184763416     Delta= 1.54D-07
 NORM(A)=   0.11319472D+01
 Iteration Nr.  19
 **********************
 DD1Dir will call FoFMem   1 times, MxPair=        10
 NAB=     4 NAA=     1 NBB=     1.
 A-vector RMS=  7.0767292D-08 Max=  2.6251853D-07 conv= 1.00D-05.
 RLE energy=       -0.1076074898
 DE(Corr)= -0.10760752     E(CORR)=     -25.184763369     Delta= 4.74D-08
 NORM(A)=   0.11319467D+01
 CI/CC converged in   19 iterations to DelEn= 4.74D-08 Conv= 1.00D-07 ErrA1= 7.08D-08 Conv= 1.00D-05
 Wavefunction amplitudes converged. E(Corr)=     -25.184763369    
 Dominant configurations:
 ***********************
 Spin Case        I    J    A    B          Value
    AA            3         5            0.159763D+00
    AA            3         9            0.147423D+00
    BB            3         5            0.159763D+00
    BB            3         9            0.147423D+00
 Largest amplitude= 1.60D-01

 S**2, projected HF & approx projected MPn energies after annihilation of
 unwanted spin states (see manual for definitions):

 spins       (S**2,0) (S**2,1)    PUHF        PMP2        PMP3        PMP4
 annihilated
 s+1        -0.00219 -0.00068  -25.086306  -25.158083  -25.172902
 s+1,s+2     0.00000  0.00000  -25.086108  -25.157895  -25.172730

 Discarding MO integrals.
 Leave Link  913 at Sun May 22 18:34:33 2022, MaxMem=   104857600 cpu:              10.3 elap:              10.3
 (Enter /apps/software/g16/l601.exe)
 Copying SCF densities to generalized density rwf, IOpCl= 1 IROHF=0.
 SCF density gives NOpUse=  1 NOpAll=  4.
 Marking SCF density as not fully symmetric.

 **********************************************************************

            Population analysis using the SCF density.

 **********************************************************************

 Orbital symmetries:
 Alpha Orbitals:
       Occupied  (SG) (?A) (?A)
       Virtual   (?A) (?A) (?A) (?A) (?A) (?A) (?A) (?B) (?B) (?B)
                 (?B) (?B) (?A) (?A) (PI) (PI) (?A) (?A) (?A) (?A)
                 (?C) (?C) (?C) (?C) (?C) (?C) (?C) (?C) (SG) (PI)
                 (PI) (SG) (SG) (DLTA) (DLTA) (?D) (?D) (?D) (PI)
                 (PI) (SG) (?E) (?E) (?E) (PHI) (PHI) (?F) (?F)
                 (?F) (?F) (?F) (?F) (?F) (?F) (?F) (?F) (?F) (?G)
                 (?G) (?G) (?G) (?G) (SG) (PHI) (PHI) (PI) (PI)
                 (SG) (SG) (PI) (PI) (DLTA) (DLTA) (SG) (DLTA)
                 (DLTA) (PI) (PI) (SG) (PI) (PI) (SG) (PI) (PI)
                 (?H) (?H) (?H) (?H) (?H) (?H) (?H) (?H) (?H) (?H)
                 (?H) (PHI) (PHI) (?H) (?H) (?H) (PI) (PI) (PI)
                 (PI) (SG) (SG) (PHI) (PHI) (DLTA) (DLTA) (PI)
                 (PI) (SG) (SG) (PI) (PI) (DLTA) (DLTA) (SG) (PI)
                 (PI) (SG) (SG)
 Beta  Orbitals:
       Occupied  (SG) (?A) (?A)
       Virtual   (?A) (?A) (?A) (?A) (?A) (?A) (?A) (?B) (?B) (?B)
                 (?B) (?B) (?A) (?A) (PI) (PI) (?A) (?A) (?A) (?A)
                 (?C) (?C) (?C) (?C) (?C) (?C) (?C) (?C) (SG) (PI)
                 (PI) (SG) (SG) (DLTA) (DLTA) (?D) (?D) (?D) (PI)
                 (PI) (SG) (?E) (?E) (?E) (PHI) (PHI) (?F) (?F)
                 (?F) (?F) (?F) (?F) (?F) (?F) (?F) (?F) (?F) (?G)
                 (?G) (?G) (?G) (?G) (SG) (PHI) (PHI) (PI) (PI)
                 (SG) (SG) (PI) (PI) (DLTA) (DLTA) (SG) (DLTA)
                 (DLTA) (PI) (PI) (SG) (PI) (PI) (SG) (PI) (PI)
                 (?H) (?H) (?H) (?H) (?H) (?H) (?H) (?H) (?H) (?H)
                 (?H) (PHI) (PHI) (?H) (?H) (?H) (PI) (PI) (PI)
                 (PI) (SG) (SG) (PHI) (PHI) (DLTA) (DLTA) (PI)
                 (PI) (SG) (SG) (PI) (PI) (DLTA) (DLTA) (SG) (PI)
                 (PI) (SG) (SG)
 Unable to determine electronic state:  an orbital has unidentified symmetry.
 Alpha  occ. eigenvalues --   -7.74794  -0.56221  -0.35683
 Alpha virt. eigenvalues --    0.01857   0.02292   0.03203   0.05026   0.07154
 Alpha virt. eigenvalues --    0.07439   0.09992   0.12184   0.13941   0.14058
 Alpha virt. eigenvalues --    0.14416   0.14422   0.20428   0.23407   0.27215
 Alpha virt. eigenvalues --    0.27282   0.29936   0.30168   0.33278   0.37764
 Alpha virt. eigenvalues --    0.45798   0.45798   0.46262   0.46263   0.48071
 Alpha virt. eigenvalues --    0.48270   0.49321   0.49362   0.51492   0.55054
 Alpha virt. eigenvalues --    0.55242   0.58474   0.67164   0.78569   0.78569
 Alpha virt. eigenvalues --    0.79864   0.79937   0.80548   0.96845   0.96938
 Alpha virt. eigenvalues --    1.12944   1.17011   1.17202   1.28595   1.34549
 Alpha virt. eigenvalues --    1.34549   1.35906   1.36178   1.36234   1.36235
 Alpha virt. eigenvalues --    1.38349   1.38359   1.39916   1.42189   1.42192
 Alpha virt. eigenvalues --    1.43374   1.43375   1.48960   1.49799   1.50267
 Alpha virt. eigenvalues --    1.52816   1.52818   1.60223   1.74639   1.74639
 Alpha virt. eigenvalues --    1.81592   1.81911   1.95444   2.02805   2.10417
 Alpha virt. eigenvalues --    2.10579   2.13046   2.13049   2.23233   2.60381
 Alpha virt. eigenvalues --    2.60381   2.81439   2.81581   3.17089   3.17770
 Alpha virt. eigenvalues --    3.17954   3.34584   3.74057   3.74546   3.90107
 Alpha virt. eigenvalues --    3.90107   3.93103   3.93103   3.93450   3.93450
 Alpha virt. eigenvalues --    3.99440   3.99831   4.00082   4.00256   4.04441
 Alpha virt. eigenvalues --    4.06426   4.06426   4.09730   4.12383   4.12407
 Alpha virt. eigenvalues --    4.23464   4.24014   4.44225   4.44739   4.60616
 Alpha virt. eigenvalues --    4.98840   6.64862   6.64862   6.76593   6.76593
 Alpha virt. eigenvalues --    6.85064   6.85129   7.12311   7.82406   8.31669
 Alpha virt. eigenvalues --    8.31703   8.52931   8.52931   8.83048   8.87453
 Alpha virt. eigenvalues --    8.87500   9.46058  13.70607
  Beta  occ. eigenvalues --   -7.74794  -0.56221  -0.35683
  Beta virt. eigenvalues --    0.01857   0.02292   0.03203   0.05026   0.07154
  Beta virt. eigenvalues --    0.07439   0.09992   0.12184   0.13941   0.14058
  Beta virt. eigenvalues --    0.14416   0.14422   0.20428   0.23407   0.27215
  Beta virt. eigenvalues --    0.27282   0.29936   0.30168   0.33278   0.37764
  Beta virt. eigenvalues --    0.45798   0.45798   0.46262   0.46263   0.48071
  Beta virt. eigenvalues --    0.48270   0.49321   0.49362   0.51492   0.55054
  Beta virt. eigenvalues --    0.55242   0.58474   0.67164   0.78569   0.78569
  Beta virt. eigenvalues --    0.79864   0.79937   0.80548   0.96845   0.96938
  Beta virt. eigenvalues --    1.12944   1.17011   1.17202   1.28595   1.34549
  Beta virt. eigenvalues --    1.34549   1.35906   1.36178   1.36234   1.36235
  Beta virt. eigenvalues --    1.38349   1.38359   1.39916   1.42189   1.42192
  Beta virt. eigenvalues --    1.43374   1.43375   1.48960   1.49799   1.50267
  Beta virt. eigenvalues --    1.52816   1.52818   1.60223   1.74639   1.74639
  Beta virt. eigenvalues --    1.81592   1.81911   1.95444   2.02805   2.10417
  Beta virt. eigenvalues --    2.10579   2.13046   2.13049   2.23233   2.60381
  Beta virt. eigenvalues --    2.60381   2.81439   2.81581   3.17089   3.17770
  Beta virt. eigenvalues --    3.17954   3.34584   3.74057   3.74546   3.90107
  Beta virt. eigenvalues --    3.90107   3.93103   3.93103   3.93450   3.93450
  Beta virt. eigenvalues --    3.99440   3.99831   4.00082   4.00256   4.04441
  Beta virt. eigenvalues --    4.06426   4.06426   4.09730   4.12383   4.12407
  Beta virt. eigenvalues --    4.23464   4.24014   4.44225   4.44739   4.60616
  Beta virt. eigenvalues --    4.98840   6.64862   6.64862   6.76593   6.76593
  Beta virt. eigenvalues --    6.85064   6.85129   7.12311   7.82406   8.31669
  Beta virt. eigenvalues --    8.31703   8.52931   8.52931   8.83048   8.87453
  Beta virt. eigenvalues --    8.87500   9.46058  13.70607
          Condensed to atoms (all electrons):
               1          2
     1  B    4.546128   0.292638
     2  H    0.292638   0.868597
          Atomic-Atomic Spin Densities.
               1          2
     1  B    0.000000   0.000000
     2  H    0.000000   0.000000
 Mulliken charges and spin densities:
               1          2
     1  B    0.161234   0.000000
     2  H   -0.161234   0.000000
 Sum of Mulliken charges =  -0.00000   0.00000
 Mulliken charges and spin densities with hydrogens summed into heavy atoms:
               1          2
     1  B   -0.000000   0.000000
 Electronic spatial extent (au):  <R**2>=             29.1202
 Charge=             -0.0000 electrons
 Dipole moment (field-independent basis, Debye):
    X=              0.0000    Y=             -0.0000    Z=              0.5664  Tot=              0.5664
 Quadrupole moment (field-independent basis, Debye-Ang):
   XX=             -7.7386   YY=             -7.1177   ZZ=            -11.3427
   XY=              0.0000   XZ=              0.0000   YZ=              0.0000
 Traceless Quadrupole moment (field-independent basis, Debye-Ang):
   XX=              0.9944   YY=              1.6153   ZZ=             -2.6097
   XY=              0.0000   XZ=              0.0000   YZ=              0.0000
 Octapole moment (field-independent basis, Debye-Ang**2):
  XXX=              0.0000  YYY=             -0.0000  ZZZ=              0.6340  XYY=              0.0000
  XXY=             -0.0000  XXZ=              0.3404  XZZ=              0.0000  YZZ=              0.0000
  YYZ=              0.6503  XYZ=              0.0000
 Hexadecapole moment (field-independent basis, Debye-Ang**3):
 XXXX=            -11.7482 YYYY=            -10.0883 ZZZZ=            -45.5165 XXXY=              0.0000
 XXXZ=              0.0000 YYYX=              0.0000 YYYZ=             -0.0000 ZZZX=              0.0000
 ZZZY=              0.0000 XXYY=             -3.6394 XXZZ=             -9.9334 YYZZ=             -9.5208
 XXYZ=             -0.0000 YYXZ=              0.0000 ZZXY=              0.0000
 N-N= 1.469936697000D+00 E-N=-6.059779522325D+01  KE= 2.483756479382D+01
 Leave Link  601 at Sun May 22 18:34:33 2022, MaxMem=   104857600 cpu:               0.1 elap:               0.1
 (Enter /apps/software/g16/l9999.exe)
 1\1\GINC-CNODE10\SP\UCCSD-FC\Aug-CC-pVQZ\B1H1\LCZ\22-May-2022\0\\#p UH
 F/aug-cc-pVQZ guess=read CCSD=FC\\BH UCCSD at 1.8 Angstrom\\0,1\B,0,0.
 ,0.,0.\H,0,1.8,0.,0.\\Version=ES64L-G16RevA.03\HF=-25.0771558\MP2=-25.
 1492645\MP3=-25.1648294\MP4D=-25.1718449\MP4DQ=-25.1698951\PUHF=-25.08
 63057\PMP2-0=-25.1580828\PMP3-0=-25.1729025\MP4SDQ=-25.1711167\CCSD=-2
 5.1847634\S2=0.331609\S2-1=0.307411\S2A=0.004378\RMSD=5.171e-10\PG=C*V
  [C*(H1B1)]\\@


 A politician is a person who can make waves and then
 make you think he's the only one who can save the ship.
 -- Ivern Ball
 Job cpu time:       0 days  0 hours  0 minutes 24.9 seconds.
 Elapsed time:       0 days  0 hours  0 minutes 24.9 seconds.
 File lengths (MBytes):  RWF=    377 Int=      0 D2E=      0 Chk=     67 Scr=      1
 Normal termination of Gaussian 16 at Sun May 22 18:34:33 2022.

Sender: Unischeduler System <lcz@mgt01>
Subject: Job 134214: <#!/bin/bash
#BSUB -J intel
#BSUB -o BH-1.8-UCCSD-G.out
#BSUB -n 8
#BSUB -q cqueue
#BSUB -R span[hosts=1]
export g16root=/apps/software
source /apps/software/g16/bsd/g16.profile
export GAUSS_SCRDIR=/scratch
/apps/software/g16/g16 < BH-1.8-UCCSD-G.inp > BH-1.8-UCCSD-G.out> Done

Job <#!/bin/bash
#BSUB -J intel
#BSUB -o BH-1.8-UCCSD-G.out
#BSUB -n 8
#BSUB -q cqueue
#BSUB -R span[hosts=1]
export g16root=/apps/software
source /apps/software/g16/bsd/g16.profile
export GAUSS_SCRDIR=/scratch
/apps/software/g16/g16 < BH-1.8-UCCSD-G.inp > BH-1.8-UCCSD-G.out> was submitted from host <mgt01> by user <lcz>.
Job was executed on host(s) <8*cnode10>, in queue <cqueue>, as user <lcz>.
</apps/users/lcz> was used as the home directory.
</apps/users/lcz/exe13/UCCSD> was used as the working directory.
Started at 2022-05-22 18:34:08
Results reported at 2022-05-22 18:34:33

Your job looked like:

------------------------------------------------------------
# User input
#!/bin/bash
#BSUB -J intel
#BSUB -o BH-1.8-UCCSD-G.out
#BSUB -n 8
#BSUB -q cqueue
#BSUB -R span[hosts=1]
export g16root=/apps/software
source /apps/software/g16/bsd/g16.profile
export GAUSS_SCRDIR=/scratch
/apps/software/g16/g16 < BH-1.8-UCCSD-G.inp > BH-1.8-UCCSD-G.out
------------------------------------------------------------

Successfully completed.

Resource usage summary:

    CPU time   :            24.8 sec.
    Max Memory :               496 MB
    Max Processes  :               5


The output (if any) follows:

