 Entering Gaussian System, Link 0=/apps/software/g16/g16
 Initial command:
 /apps/software/g16/l1.exe "/scratch/Gau-284393.inp" -scrdir="/scratch/"
 Entering Link 1 = /apps/software/g16/l1.exe PID=    284394.
  
 Copyright (c) 1988,1990,1992,1993,1995,1998,2003,2009,2016,
            Gaussian, Inc.  All Rights Reserved.
  
 This is part of the Gaussian(R) 16 program.  It is based on
 the Gaussian(R) 09 system (copyright 2009, Gaussian, Inc.),
 the Gaussian(R) 03 system (copyright 2003, Gaussian, Inc.),
 the Gaussian(R) 98 system (copyright 1998, Gaussian, Inc.),
 the Gaussian(R) 94 system (copyright 1995, Gaussian, Inc.),
 the Gaussian 92(TM) system (copyright 1992, Gaussian, Inc.),
 the Gaussian 90(TM) system (copyright 1990, Gaussian, Inc.),
 the Gaussian 88(TM) system (copyright 1988, Gaussian, Inc.),
 the Gaussian 86(TM) system (copyright 1986, Carnegie Mellon
 University), and the Gaussian 82(TM) system (copyright 1983,
 Carnegie Mellon University). Gaussian is a federally registered
 trademark of Gaussian, Inc.
  
 This software contains proprietary and confidential information,
 including trade secrets, belonging to Gaussian, Inc.
  
 This software is provided under written license and may be
 used, copied, transmitted, or stored only in accord with that
 written license.
  
 The following legend is applicable only to US Government
 contracts under FAR:
  
                    RESTRICTED RIGHTS LEGEND
  
 Use, reproduction and disclosure by the US Government is
 subject to restrictions as set forth in subparagraphs (a)
 and (c) of the Commercial Computer Software - Restricted
 Rights clause in FAR 52.227-19.
  
 Gaussian, Inc.
 340 Quinnipiac St., Bldg. 40, Wallingford CT 06492
  
  
 ---------------------------------------------------------------
 Warning -- This program may not be used in any manner that
 competes with the business of Gaussian, Inc. or will provide
 assistance to any competitor of Gaussian, Inc.  The licensee
 of this program is prohibited from giving any competitor of
 Gaussian, Inc. access to this program.  By using this program,
 the user acknowledges that Gaussian, Inc. is engaged in the
 business of creating and licensing software in the field of
 computational chemistry and represents and warrants to the
 licensee that it is not a competitor of Gaussian, Inc. and that
 it will not use this program in any manner prohibited above.
 ---------------------------------------------------------------
  

 Cite this work as:
 Gaussian 16, Revision A.03,
 M. J. Frisch, G. W. Trucks, H. B. Schlegel, G. E. Scuseria, 
 M. A. Robb, J. R. Cheeseman, G. Scalmani, V. Barone, 
 G. A. Petersson, H. Nakatsuji, X. Li, M. Caricato, A. V. Marenich, 
 J. Bloino, B. G. Janesko, R. Gomperts, B. Mennucci, H. P. Hratchian, 
 J. V. Ortiz, A. F. Izmaylov, J. L. Sonnenberg, D. Williams-Young, 
 F. Ding, F. Lipparini, F. Egidi, J. Goings, B. Peng, A. Petrone, 
 T. Henderson, D. Ranasinghe, V. G. Zakrzewski, J. Gao, N. Rega, 
 G. Zheng, W. Liang, M. Hada, M. Ehara, K. Toyota, R. Fukuda, 
 J. Hasegawa, M. Ishida, T. Nakajima, Y. Honda, O. Kitao, H. Nakai, 
 T. Vreven, K. Throssell, J. A. Montgomery, Jr., J. E. Peralta, 
 F. Ogliaro, M. J. Bearpark, J. J. Heyd, E. N. Brothers, K. N. Kudin, 
 V. N. Staroverov, T. A. Keith, R. Kobayashi, J. Normand, 
 K. Raghavachari, A. P. Rendell, J. C. Burant, S. S. Iyengar, 
 J. Tomasi, M. Cossi, J. M. Millam, M. Klene, C. Adamo, R. Cammi, 
 J. W. Ochterski, R. L. Martin, K. Morokuma, O. Farkas, 
 J. B. Foresman, and D. J. Fox, Gaussian, Inc., Wallingford CT, 2016.
 
 ******************************************
 Gaussian 16:  ES64L-G16RevA.03 25-Dec-2016
                22-May-2022 
 ******************************************
 %oldchk=BH-1.1-UHF-G.chk
 %chk=BH-1.1-UCCSD-G.chk
 Copying data from "BH-1.1-UHF-G.chk" to current chk file "BH-1.1-UCCSD-G.chk"
 IOpt=  2 FromEx=T IUOpen= 4 IOptOp= 5 NList=   0 IFRang= 0 IUIn= 4 IUOut= 2.
 -------------------------------------
 #p UHF/aug-cc-pVQZ guess=read CCSD=FC
 -------------------------------------
 1/38=1,172=1/1;
 2/12=2,17=6,18=5,40=1/2;
 3/5=16,6=2,7=10,11=2,25=1,30=1,116=2/1,2,3;
 4/5=1/1;
 5/5=2,38=6/2;
 8/6=4,9=120000,10=1/1,4;
 9/5=7/13;
 6/7=2,8=2,9=2,10=2/1;
 99/5=1,9=1/99;
 Leave Link    1 at Sun May 22 18:38:04 2022, MaxMem=   104857600 cpu:               0.0 elap:               0.0
 (Enter /apps/software/g16/l101.exe)
 ------------------------
 BH UCCSD at 1.1 Angstrom
 ------------------------
 Symbolic Z-matrix:
 Charge =  0 Multiplicity = 1
 B                     0.        0.        0. 
 H                     1.1       0.        0. 
 
 ITRead=  0  0
 MicOpt= -1 -1
 NAtoms=      2 NQM=        2 NQMF=       0 NMMI=      0 NMMIF=      0
                NMic=       0 NMicF=      0.
                    Isotopes and Nuclear Properties:
 (Nuclear quadrupole moments (NQMom) in fm**2, nuclear magnetic moments (NMagM)
  in nuclear magnetons)

  Atom         1           2
 IAtWgt=          11           1
 AtmWgt=  11.0093053   1.0078250
 NucSpn=           3           1
 AtZEff=  -0.0000000  -0.0000000
 NQMom=    4.0590000   0.0000000
 NMagM=    2.6886370   2.7928460
 AtZNuc=   5.0000000   1.0000000
 Leave Link  101 at Sun May 22 18:38:04 2022, MaxMem=   104857600 cpu:               0.1 elap:               0.1
 (Enter /apps/software/g16/l202.exe)
                          Input orientation:                          
 ---------------------------------------------------------------------
 Center     Atomic      Atomic             Coordinates (Angstroms)
 Number     Number       Type             X           Y           Z
 ---------------------------------------------------------------------
      1          5           0        0.000000    0.000000    0.000000
      2          1           0        1.100000    0.000000    0.000000
 ---------------------------------------------------------------------
 Stoichiometry    BH
 Framework group  C*V[C*(HB)]
 Deg. of freedom     1
 Full point group                 C*V     NOp   4
 Largest Abelian subgroup         C2V     NOp   4
 Largest concise Abelian subgroup C1      NOp   1
                         Standard orientation:                         
 ---------------------------------------------------------------------
 Center     Atomic      Atomic             Coordinates (Angstroms)
 Number     Number       Type             X           Y           Z
 ---------------------------------------------------------------------
      1          5           0        0.000000    0.000000    0.183333
      2          1           0        0.000000    0.000000   -0.916667
 ---------------------------------------------------------------------
 Rotational constants (GHZ):           0.0000000         452.3634862         452.3634862
 Leave Link  202 at Sun May 22 18:38:04 2022, MaxMem=   104857600 cpu:               0.0 elap:               0.0
 (Enter /apps/software/g16/l301.exe)
 Standard basis: Aug-CC-pVQZ (5D, 7F)
 Ernie: Thresh=  0.10000D-02 Tol=  0.10000D-05 Strict=F.
 Ernie:  4 primitive shells out of 54 were deleted.
 There are    68 symmetry adapted cartesian basis functions of A1  symmetry.
 There are    18 symmetry adapted cartesian basis functions of A2  symmetry.
 There are    37 symmetry adapted cartesian basis functions of B1  symmetry.
 There are    37 symmetry adapted cartesian basis functions of B2  symmetry.
 There are    50 symmetry adapted basis functions of A1  symmetry.
 There are    16 symmetry adapted basis functions of A2  symmetry.
 There are    30 symmetry adapted basis functions of B1  symmetry.
 There are    30 symmetry adapted basis functions of B2  symmetry.
   126 basis functions,   180 primitive gaussians,   160 cartesian basis functions
     3 alpha electrons        3 beta electrons
       nuclear repulsion energy         2.4053509587 Hartrees.
 IExCor=    0 DFT=F Ex=HF Corr=None ExCW=0 ScaHFX=  1.000000
 ScaDFX=  1.000000  1.000000  1.000000  1.000000 ScalE2=  1.000000  1.000000
 IRadAn=      5 IRanWt=     -1 IRanGd=            0 ICorTp=0 IEmpDi=  4
 NAtoms=    2 NActive=    2 NUniq=    2 SFac= 1.00D+00 NAtFMM=   60 NAOKFM=F Big=F
 Integral buffers will be    131072 words long.
 Raffenetti 2 integral format.
 Two-electron integral symmetry is turned on.
 Leave Link  301 at Sun May 22 18:38:04 2022, MaxMem=   104857600 cpu:               0.1 elap:               0.1
 (Enter /apps/software/g16/l302.exe)
 NPDir=0 NMtPBC=     1 NCelOv=     1 NCel=       1 NClECP=     1 NCelD=      1
         NCelK=      1 NCelE2=     1 NClLst=     1 CellRange=     0.0.
 One-electron integrals computed using PRISM.
 One-electron integral symmetry used in STVInt
 NBasis=   126 RedAO= T EigKep=  8.26D-05  NBF=    50    16    30    30
 NBsUse=   126 1.00D-06 EigRej= -1.00D+00 NBFU=    50    16    30    30
 Leave Link  302 at Sun May 22 18:38:04 2022, MaxMem=   104857600 cpu:               0.1 elap:               0.1
 (Enter /apps/software/g16/l303.exe)
 DipDrv:  MaxL=1.
 Leave Link  303 at Sun May 22 18:38:04 2022, MaxMem=   104857600 cpu:               0.0 elap:               0.0
 (Enter /apps/software/g16/l401.exe)
 Initial guess from the checkpoint file:  "BH-1.1-UCCSD-G.chk"
 B after Tr=     0.000000    0.000000    0.000000
         Rot=    1.000000    0.000000    0.000000    0.000000 Ang=   0.00 deg.
 Guess basis will be translated and rotated to current coordinates.
 JPrj=2 DoOrth=T DoCkMO=T.
 Initial guess orbital symmetries:
 Alpha Orbitals:
       Occupied  (SG) (SG) (?A)
       Virtual   (?A) (?A) (?A) (?A) (?A) (?A) (?A) (?A) (?A) (?A)
                 (?A) (?A) (?A) (?B) (?B) (?B) (?A) (?A) (?A) (?A)
                 (?A) (?A) (?A) (?A) (?A) (?A) (?A) (?A) (?A) (SG)
                 (PI) (PI) (?C) (PI) (PI) (?C) (?C) (SG) (?D) (?D)
                 (?D) (PI) (PI) (?E) (?E) (?E) (?E) (?E) (?E) (?E)
                 (?E) (?E) (?E) (?E) (?E) (?E) (?E) (?F) (?F) (?F)
                 (?F) (?F) (?G) (?G) (?G) (SG) (PHI) (PHI) (DLTA)
                 (DLTA) (SG) (PI) (PI) (SG) (PI) (PI) (?H) (?H)
                 (?H) (?H) (SG) (SG) (?I) (?I) (?I) (?I) (?J) (?J)
                 (?J) (?J) (?J) (?J) (?J) (?J) (?J) (PI) (PI) (PI)
                 (PI) (?K) (?K) (?K) (SG) (?L) (?L) (?L) (PHI)
                 (PHI) (DLTA) (DLTA) (SG) (PI) (PI) (SG) (DLTA)
                 (DLTA) (PI) (PI) (PI) (PI) (SG) (SG) (SG)
 Beta  Orbitals:
       Occupied  (SG) (SG) (?A)
       Virtual   (?A) (?A) (?A) (?A) (?A) (?A) (?A) (?A) (?A) (?A)
                 (?A) (?A) (?A) (?B) (?B) (?B) (?A) (?A) (?A) (?A)
                 (?A) (?A) (?A) (?A) (?A) (?A) (?A) (?A) (?A) (SG)
                 (PI) (PI) (?C) (PI) (PI) (?C) (?C) (SG) (?D) (?D)
                 (?D) (PI) (PI) (?E) (?E) (?E) (?E) (?E) (?E) (?E)
                 (?E) (?E) (?E) (?E) (?E) (?E) (?E) (?F) (?F) (?F)
                 (?F) (?F) (?G) (?G) (?G) (SG) (PHI) (PHI) (DLTA)
                 (DLTA) (SG) (PI) (PI) (SG) (PI) (PI) (?H) (?H)
                 (?H) (?H) (SG) (SG) (?I) (?I) (?I) (?I) (?J) (?J)
                 (?J) (?J) (?J) (?J) (?J) (?J) (?J) (PI) (PI) (PI)
                 (PI) (?K) (?K) (?K) (SG) (?L) (?L) (?L) (PHI)
                 (PHI) (DLTA) (DLTA) (SG) (PI) (PI) (SG) (DLTA)
                 (DLTA) (PI) (PI) (PI) (PI) (SG) (SG) (SG)
 Initial guess <Sx>= 0.0000 <Sy>= 0.0000 <Sz>= 0.0000 <S**2>= 0.5079 S= 0.3706
 Leave Link  401 at Sun May 22 18:38:04 2022, MaxMem=   104857600 cpu:               0.1 elap:               0.1
 (Enter /apps/software/g16/l502.exe)
 Keep R1 and R2 ints in memory in symmetry-blocked form, NReq=40143665.
 FoFCou: FMM=F IPFlag=           0 FMFlag=           0 FMFlg1=           0
         NFxFlg=           0 DoJE=F BraDBF=F KetDBF=F FulRan=T
         wScrn=  0.000000 ICntrl=       600 IOpCl=  0 I1Cent=           0 NGrid=           0
         NMat0=    1 NMatS0=   8001 NMatT0=    0 NMatD0=    1 NMtDS0=    0 NMtDT0=    0
 Petite list used in FoFCou.
 UHF open shell SCF:
 Using DIIS extrapolation, IDIIS=  1040.
 NGot=   104857600 LenX=    88563632 LenY=    88537591
 Requested convergence on RMS density matrix=1.00D-08 within 128 cycles.
 Requested convergence on MAX density matrix=1.00D-06.
 Requested convergence on             energy=1.00D-06.
 No special actions if energy rises.
 An orbital has undefined symmetry, so N**3 symmetry is turned off.

 Cycle   1  Pass 1  IDiag  1:
 Density matrix breaks symmetry, PCut= 1.00D-07
 Density matrix has no symmetry -- integrals replicated.
 E= -25.1320902122995    
 DIIS: error= 4.36D-09 at cycle   1 NSaved=   1.
 NSaved= 1 IEnMin= 1 EnMin= -25.1320902122995     IErMin= 1 ErrMin= 4.36D-09
 ErrMax= 4.36D-09  0.00D+00 EMaxC= 1.00D-01 BMatC= 1.89D-15 BMatP= 1.89D-15
 IDIUse=1 WtCom= 1.00D+00 WtEn= 0.00D+00
 Coeff-Com:  0.100D+01
 Coeff:      0.100D+01
 Gap=     0.396 Goal=   None    Shift=    0.000
 Gap=     0.396 Goal=   None    Shift=    0.000
 RMSDP=2.79D-10 MaxDP=6.39D-09              OVMax= 2.09D-08

 Density matrix breaks symmetry, PCut= 1.00D-07
 Density matrix has no symmetry -- integrals replicated.
 SCF Done:  E(UHF) =  -25.1320902123     A.U. after    1 cycles
            NFock=  1  Conv=0.28D-09     -V/T= 1.9949
 <Sx>= 0.0000 <Sy>= 0.0000 <Sz>= 0.0000 <S**2>= 0.5079 S= 0.3706
 <L.S>=  0.00000000000    
 KE= 2.526158892123D+01 PE=-6.293071858359D+01 EE= 1.013168849133D+01
 Annihilation of the first spin contaminant:
 S**2 before annihilation     0.5079,   after     0.0047
 Leave Link  502 at Sun May 22 18:38:08 2022, MaxMem=   104857600 cpu:               3.8 elap:               3.8
 (Enter /apps/software/g16/l801.exe)
 Windowed orbitals will be sorted by symmetry type.
 ExpMin= 1.88D-02 ExpMax= 2.39D+04 ExpMxC= 2.30D+02 IAcc=3 IRadAn=         5 AccDes= 0.00D+00
 HarFok:  IExCor=  205 AccDes= 0.00D+00 IRadAn=         5 IDoV=-2 UseB2=F ITyADJ=14
 ICtDFT= 12500011 ScaDFX=  1.000000  1.000000  1.000000  1.000000
 DSYEVD-2 returned Info=        3401 IAlg= 4 N=    80 NDim=    80 NE2=     1309686 trying  DSYEV.
 Largest valence mixing into a core orbital is  3.15D-04
 Largest core mixing into a valence orbital is  5.01D-05
 Largest valence mixing into a core orbital is  3.15D-04
 Largest core mixing into a valence orbital is  5.01D-05
 Range of M.O.s used for correlation:     2   126
 NBasis=   126 NAE=     3 NBE=     3 NFC=     1 NFV=     0
 NROrb=    125 NOA=     2 NOB=     2 NVA=   123 NVB=   123

 **** Warning!!: The largest alpha MO coefficient is  0.28787598D+02


 **** Warning!!: The largest beta MO coefficient is  0.28787598D+02

 Leave Link  801 at Sun May 22 18:38:08 2022, MaxMem=   104857600 cpu:               0.1 elap:               0.1
 (Enter /apps/software/g16/l804.exe)
 Open-shell transformation, MDV=   104857600 ITran=4 ISComp=1.
 Unit  1 TFree=        991730 TCopy=        422292.
 Semi-Direct transformation.
 ModeAB=           2 MOrb=             2 LenV=     104170786
 LASXX=      1914004 LTotXX=     1914004 LenRXX=     1914004
 LTotAB=     1960875 MaxLAS=     3220000 LenRXY=     3220000
 NonZer=     3828008 LenScr=     6455808 LnRSAI=           0
 LnScr1=           0 LExtra=           0 Total=     11589812
 MaxDsk=          -1 SrtSym=           F ITran=            4
 DoSDTr:  NPSUse=  1
 JobTyp=1 Pass  1:  I=   1 to   2.
 (rs|ai) integrals will be sorted in core.
 Complete sort for first half transformation.
 First half transformation complete.
 Complete sort for second half transformation.
 Second half transformation complete.
 ModeAB=           2 MOrb=             2 LenV=     104170786
 LASXX=      1914004 LTotXX=     1914004 LenRXX=     3220000
 LTotAB=     1898874 MaxLAS=     3220000 LenRXY=     1898874
 NonZer=     3828008 LenScr=     6455808 LnRSAI=           0
 LnScr1=           0 LExtra=           0 Total=     11574682
 MaxDsk=          -1 SrtSym=           F ITran=            4
 DoSDTr:  NPSUse=  1
 JobTyp=2 Pass  1:  I=   1 to   2.
 (rs|ai) integrals will be sorted in core.
 Complete sort for first half transformation.
 First half transformation complete.
 Complete sort for second half transformation.
 Second half transformation complete.
 SymMOI:  orbitals are not symmetric.
 Spin components of T(2) and E(2):
     alpha-alpha T2 =       0.1047580414D-02 E2=     -0.2509461821D-02
     alpha-beta  T2 =       0.2345519626D-01 E2=     -0.5952722555D-01
     beta-beta   T2 =       0.1047580414D-02 E2=     -0.2509461821D-02
 ANorm=    0.1012694602D+01
 E2 =    -0.6454614919D-01 EUMP2 =    -0.25196636361492D+02
 (S**2,0)=  0.50790D+00           (S**2,1)=  0.48797D+00
 E(PUHF)=      -0.25141152602D+02        E(PMP2)=      -0.25205521818D+02
 Leave Link  804 at Sun May 22 18:38:19 2022, MaxMem=   104857600 cpu:              11.2 elap:              11.2
 (Enter /apps/software/g16/l913.exe)
 CIDS:  MDV=   104857600.
 Frozen-core window:  NFC=   1 NFV=   0.
 IFCWin=0 IBDFC=1 NFBD=     0     0 NFCmp=     0     0 NFFFC=     0     0
 Using original routines for 1st iteration.
 Using DD4UQ or CC4UQ for 2nd and later iterations.
 Keep R2 and R3 ints in memory in symmetry-blocked form, NReq=40147367.
 FoFCou: FMM=F IPFlag=           0 FMFlag=           0 FMFlg1=           0
         NFxFlg=           0 DoJE=F BraDBF=F KetDBF=F FulRan=T
         wScrn=  0.000000 ICntrl=       600 IOpCl=  0 I1Cent=           0 NGrid=           0
         NMat0=    1 NMatS0=   8001 NMatT0=    0 NMatD0=    1 NMtDS0=    0 NMtDT0=    0
 Petite list used in FoFCou.
 CIDS: In Core Option IDoMem=           1.
 Coupled Cluster theory with single and double substitutions
 ===========================================================
 Iterations=  50 Convergence= 0.100D-06
 Produce multiple copies of IABC intergrals
 Iteration Nr.   1
 **********************
 DD1Dir will call FoFMem   1 times, MxPair=        10
 NAB=     4 NAA=     1 NBB=     1.
 E(PMP3)=      -0.25216920409D+02
 MP4(R+Q)=  0.11134641D-02
 Maximum subspace dimension=  5
 A-vector RMS=  3.1639118D-03 Max=  1.2464596D-02 conv= 1.00D-05.
 RLE energy=       -0.0774464658
 E3=       -0.11852933D-01        EUMP3=      -0.25208489295D+02
 E4(DQ)=   -0.32252736D-02        UMP4(DQ)=   -0.25211714569D+02
 E4(SDQ)=  -0.38862231D-02        UMP4(SDQ)=  -0.25212375518D+02
 VARIATIONAL ENERGIES WITH THE FIRST-ORDER WAVEFUNCTION:
 DE(Corr)= -0.75297653E-01 E(Corr)=     -25.207387865    
 NORM(A)=   0.10221337D+01
 Iteration Nr.   2
 **********************
 DD1Dir will call FoFMem   1 times, MxPair=        10
 NAB=     4 NAA=     1 NBB=     1.
 A-vector RMS=  2.6149025D-03 Max=  1.2819423D-02 conv= 1.00D-05.
 RLE energy=       -0.0837551564
 DE(Corr)= -0.80378845E-01 E(CORR)=     -25.212469057     Delta=-5.08D-03
 NORM(A)=   0.10327498D+01
 Iteration Nr.   3
 **********************
 DD1Dir will call FoFMem   1 times, MxPair=        10
 NAB=     4 NAA=     1 NBB=     1.
 A-vector RMS=  2.3324361D-03 Max=  1.2108600D-02 conv= 1.00D-05.
 RLE energy=       -0.0876060618
 DE(Corr)= -0.83807269E-01 E(CORR)=     -25.215897481     Delta=-3.43D-03
 NORM(A)=   0.10577712D+01
 Iteration Nr.   4
 **********************
 DD1Dir will call FoFMem   1 times, MxPair=        10
 NAB=     4 NAA=     1 NBB=     1.
 A-vector RMS=  1.6955071D-03 Max=  8.6347593D-03 conv= 1.00D-05.
 RLE energy=       -0.0909365275
 DE(Corr)= -0.87656761E-01 E(CORR)=     -25.219746974     Delta=-3.85D-03
 NORM(A)=   0.11010439D+01
 Iteration Nr.   5
 **********************
 DD1Dir will call FoFMem   1 times, MxPair=        10
 NAB=     4 NAA=     1 NBB=     1.
 A-vector RMS=  9.8917435D-04 Max=  4.8008721D-03 conv= 1.00D-05.
 RLE energy=       -0.0922909249
 DE(Corr)= -0.90792977E-01 E(CORR)=     -25.222883189     Delta=-3.14D-03
 NORM(A)=   0.11350849D+01
 Iteration Nr.   6
 **********************
 DD1Dir will call FoFMem   1 times, MxPair=        10
 NAB=     4 NAA=     1 NBB=     1.
 A-vector RMS=  3.7486485D-04 Max=  1.9924136D-03 conv= 1.00D-05.
 RLE energy=       -0.0929977295
 DE(Corr)= -0.92351290E-01 E(CORR)=     -25.224441503     Delta=-1.56D-03
 NORM(A)=   0.11482011D+01
 Iteration Nr.   7
 **********************
 DD1Dir will call FoFMem   1 times, MxPair=        10
 NAB=     4 NAA=     1 NBB=     1.
 A-vector RMS=  1.4291533D-04 Max=  1.1663105D-03 conv= 1.00D-05.
 RLE energy=       -0.0930065889
 DE(Corr)= -0.92940629E-01 E(CORR)=     -25.225030842     Delta=-5.89D-04
 NORM(A)=   0.11497320D+01
 Iteration Nr.   8
 **********************
 DD1Dir will call FoFMem   1 times, MxPair=        10
 NAB=     4 NAA=     1 NBB=     1.
 A-vector RMS=  5.3078185D-05 Max=  4.7126475D-04 conv= 1.00D-05.
 RLE energy=       -0.0930414343
 DE(Corr)= -0.92988655E-01 E(CORR)=     -25.225078868     Delta=-4.80D-05
 NORM(A)=   0.11507798D+01
 Iteration Nr.   9
 **********************
 DD1Dir will call FoFMem   1 times, MxPair=        10
 NAB=     4 NAA=     1 NBB=     1.
 A-vector RMS=  2.2896088D-05 Max=  2.1539278D-04 conv= 1.00D-05.
 RLE energy=       -0.0930397419
 DE(Corr)= -0.93032510E-01 E(CORR)=     -25.225122723     Delta=-4.39D-05
 NORM(A)=   0.11511553D+01
 Iteration Nr.  10
 **********************
 DD1Dir will call FoFMem   1 times, MxPair=        10
 NAB=     4 NAA=     1 NBB=     1.
 A-vector RMS=  8.5143838D-06 Max=  7.6534427D-05 conv= 1.00D-05.
 RLE energy=       -0.0930291751
 DE(Corr)= -0.93038709E-01 E(CORR)=     -25.225128921     Delta=-6.20D-06
 NORM(A)=   0.11510900D+01
 Iteration Nr.  11
 **********************
 DD1Dir will call FoFMem   1 times, MxPair=        10
 NAB=     4 NAA=     1 NBB=     1.
 A-vector RMS=  4.8768270D-06 Max=  3.4601730D-05 conv= 1.00D-05.
 RLE energy=       -0.0930230182
 DE(Corr)= -0.93030726E-01 E(CORR)=     -25.225120939     Delta= 7.98D-06
 NORM(A)=   0.11509951D+01
 Iteration Nr.  12
 **********************
 DD1Dir will call FoFMem   1 times, MxPair=        10
 NAB=     4 NAA=     1 NBB=     1.
 A-vector RMS=  3.2842738D-06 Max=  1.5193767D-05 conv= 1.00D-05.
 RLE energy=       -0.0930189406
 DE(Corr)= -0.93023874E-01 E(CORR)=     -25.225114086     Delta= 6.85D-06
 NORM(A)=   0.11509167D+01
 Iteration Nr.  13
 **********************
 DD1Dir will call FoFMem   1 times, MxPair=        10
 NAB=     4 NAA=     1 NBB=     1.
 A-vector RMS=  2.2357211D-06 Max=  1.1009042D-05 conv= 1.00D-05.
 RLE energy=       -0.0930171726
 DE(Corr)= -0.93019771E-01 E(CORR)=     -25.225109984     Delta= 4.10D-06
 NORM(A)=   0.11508642D+01
 Iteration Nr.  14
 **********************
 DD1Dir will call FoFMem   1 times, MxPair=        10
 NAB=     4 NAA=     1 NBB=     1.
 A-vector RMS=  1.2449095D-06 Max=  5.9066475D-06 conv= 1.00D-05.
 RLE energy=       -0.0930158604
 DE(Corr)= -0.93017496E-01 E(CORR)=     -25.225107708     Delta= 2.28D-06
 NORM(A)=   0.11508270D+01
 Iteration Nr.  15
 **********************
 DD1Dir will call FoFMem   1 times, MxPair=        10
 NAB=     4 NAA=     1 NBB=     1.
 A-vector RMS=  5.7220311D-07 Max=  2.6696744D-06 conv= 1.00D-05.
 RLE energy=       -0.0930154378
 DE(Corr)= -0.93016002E-01 E(CORR)=     -25.225106215     Delta= 1.49D-06
 NORM(A)=   0.11508115D+01
 Iteration Nr.  16
 **********************
 DD1Dir will call FoFMem   1 times, MxPair=        10
 NAB=     4 NAA=     1 NBB=     1.
 A-vector RMS=  2.0768406D-07 Max=  8.3034414D-07 conv= 1.00D-05.
 RLE energy=       -0.0930153063
 DE(Corr)= -0.93015463E-01 E(CORR)=     -25.225105676     Delta= 5.39D-07
 NORM(A)=   0.11508073D+01
 Iteration Nr.  17
 **********************
 DD1Dir will call FoFMem   1 times, MxPair=        10
 NAB=     4 NAA=     1 NBB=     1.
 A-vector RMS=  8.6609487D-08 Max=  2.8732600D-07 conv= 1.00D-05.
 RLE energy=       -0.0930152386
 DE(Corr)= -0.93015309E-01 E(CORR)=     -25.225105521     Delta= 1.54D-07
 NORM(A)=   0.11508057D+01
 Iteration Nr.  18
 **********************
 DD1Dir will call FoFMem   1 times, MxPair=        10
 NAB=     4 NAA=     1 NBB=     1.
 A-vector RMS=  3.9579739D-08 Max=  1.1411365D-07 conv= 1.00D-05.
 RLE energy=       -0.0930152102
 DE(Corr)= -0.93015238E-01 E(CORR)=     -25.225105451     Delta= 7.06D-08
 NORM(A)=   0.11508054D+01
 CI/CC converged in   18 iterations to DelEn= 7.06D-08 Conv= 1.00D-07 ErrA1= 3.96D-08 Conv= 1.00D-05
 Wavefunction amplitudes converged. E(Corr)=     -25.225105451    
 Dominant configurations:
 ***********************
 Spin Case        I    J    A    B          Value
    AA            3         5            0.105485D+00
    AA            3         6           -0.127820D+00
    AA            3         9            0.220435D+00
    BB            3         5            0.105485D+00
    BB            3         6           -0.127820D+00
    BB            3         9            0.220435D+00
 Largest amplitude= 2.20D-01

 S**2, projected HF & approx projected MPn energies after annihilation of
 unwanted spin states (see manual for definitions):

 spins       (S**2,0) (S**2,1)    PUHF        PMP2        PMP3        PMP4
 annihilated
 s+1        -0.00237 -0.00044  -25.141153  -25.205522  -25.216920
 s+1,s+2     0.00000  0.00000  -25.140823  -25.205202  -25.216618

 Discarding MO integrals.
 Leave Link  913 at Sun May 22 18:38:28 2022, MaxMem=   104857600 cpu:               8.5 elap:               8.6
 (Enter /apps/software/g16/l601.exe)
 Copying SCF densities to generalized density rwf, IOpCl= 1 IROHF=0.
 SCF density gives NOpUse=  1 NOpAll=  4.
 Marking SCF density as not fully symmetric.

 **********************************************************************

            Population analysis using the SCF density.

 **********************************************************************

 Orbital symmetries:
 Alpha Orbitals:
       Occupied  (SG) (SG) (?A)
       Virtual   (?A) (?A) (?A) (?A) (?A) (?A) (?A) (?A) (?A) (?A)
                 (?A) (?A) (?A) (?B) (?B) (?B) (?A) (?A) (?A) (?A)
                 (?A) (?A) (?A) (?A) (?A) (?A) (?A) (?A) (?A) (SG)
                 (PI) (PI) (?C) (PI) (PI) (?C) (?C) (SG) (?D) (?D)
                 (?D) (PI) (PI) (?E) (?E) (?E) (?E) (?E) (?E) (?E)
                 (?E) (?E) (?E) (?E) (?E) (?E) (?E) (?F) (?F) (?F)
                 (?F) (?F) (?G) (?G) (?G) (SG) (PHI) (PHI) (DLTA)
                 (DLTA) (SG) (PI) (PI) (SG) (PI) (PI) (?H) (?H)
                 (?H) (?H) (SG) (SG) (?I) (?I) (?I) (?I) (?J) (?J)
                 (?J) (?J) (?J) (?J) (?J) (?J) (?J) (PI) (PI) (PI)
                 (PI) (?K) (?K) (?K) (SG) (?L) (?L) (?L) (PHI)
                 (PHI) (DLTA) (DLTA) (SG) (PI) (PI) (SG) (DLTA)
                 (DLTA) (PI) (PI) (PI) (PI) (SG) (SG) (SG)
 Beta  Orbitals:
       Occupied  (SG) (SG) (?A)
       Virtual   (?A) (?A) (?A) (?A) (?A) (?A) (?A) (?A) (?A) (?A)
                 (?A) (?A) (?A) (?B) (?B) (?B) (?A) (?A) (?A) (?A)
                 (?A) (?A) (?A) (?A) (?A) (?A) (?A) (?A) (?A) (SG)
                 (PI) (PI) (?C) (PI) (PI) (?C) (?C) (SG) (?D) (?D)
                 (?D) (PI) (PI) (?E) (?E) (?E) (?E) (?E) (?E) (?E)
                 (?E) (?E) (?E) (?E) (?E) (?E) (?E) (?F) (?F) (?F)
                 (?F) (?F) (?G) (?G) (?G) (SG) (PHI) (PHI) (DLTA)
                 (DLTA) (SG) (PI) (PI) (SG) (PI) (PI) (?H) (?H)
                 (?H) (?H) (SG) (SG) (?I) (?I) (?I) (?I) (?J) (?J)
                 (?J) (?J) (?J) (?J) (?J) (?J) (?J) (PI) (PI) (PI)
                 (PI) (?K) (?K) (?K) (SG) (?L) (?L) (?L) (PHI)
                 (PHI) (DLTA) (DLTA) (SG) (PI) (PI) (SG) (DLTA)
                 (DLTA) (PI) (PI) (PI) (PI) (SG) (SG) (SG)
 Unable to determine electronic state:  an orbital has unidentified symmetry.
 Alpha  occ. eigenvalues --   -7.65888  -0.67467  -0.36933
 Alpha virt. eigenvalues --    0.02632   0.02940   0.03381   0.04406   0.08201
 Alpha virt. eigenvalues --    0.08878   0.11804   0.13266   0.13497   0.14665
 Alpha virt. eigenvalues --    0.14671   0.15015   0.18392   0.27126   0.27509
 Alpha virt. eigenvalues --    0.27710   0.32166   0.32269   0.41049   0.43382
 Alpha virt. eigenvalues --    0.44807   0.44814   0.46349   0.46353   0.47419
 Alpha virt. eigenvalues --    0.47814   0.50492   0.50501   0.51772   0.55225
 Alpha virt. eigenvalues --    0.60075   0.60418   0.76885   0.78013   0.78230
 Alpha virt. eigenvalues --    0.80630   0.80640   0.91656   1.05292   1.05492
 Alpha virt. eigenvalues --    1.09326   1.18267   1.18673   1.36712   1.37491
 Alpha virt. eigenvalues --    1.37491   1.37998   1.37998   1.39502   1.39520
 Alpha virt. eigenvalues --    1.44074   1.44087   1.45304   1.45306   1.46367
 Alpha virt. eigenvalues --    1.46951   1.47455   1.57904   1.60357   1.61012
 Alpha virt. eigenvalues --    1.66781   1.66797   1.84218   1.87082   1.87499
 Alpha virt. eigenvalues --    1.89608   1.94340   1.94340   2.03398   2.03400
 Alpha virt. eigenvalues --    2.20667   2.25953   2.26529   2.75894   3.13433
 Alpha virt. eigenvalues --    3.13847   3.22733   3.23193   3.23862   3.23883
 Alpha virt. eigenvalues --    3.29858   3.76940   3.93133   3.93133   3.94130
 Alpha virt. eigenvalues --    3.94130   4.01361   4.02371   4.03044   4.03052
 Alpha virt. eigenvalues --    4.07113   4.07151   4.10932   4.10932   4.15371
 Alpha virt. eigenvalues --    4.25891   4.26777   4.40695   4.41528   4.49235
 Alpha virt. eigenvalues --    4.49421   4.50751   5.21176   5.61241   5.61833
 Alpha virt. eigenvalues --    5.63689   6.79325   6.79325   7.44264   7.44265
 Alpha virt. eigenvalues --    7.86019   7.91596   7.91894   8.49570   8.94230
 Alpha virt. eigenvalues --    8.94230   9.27052   9.27301   9.40566   9.40962
 Alpha virt. eigenvalues --   10.10245  10.68271  17.12094
  Beta  occ. eigenvalues --   -7.65888  -0.67467  -0.36933
  Beta virt. eigenvalues --    0.02632   0.02940   0.03381   0.04406   0.08201
  Beta virt. eigenvalues --    0.08878   0.11804   0.13266   0.13497   0.14665
  Beta virt. eigenvalues --    0.14671   0.15015   0.18392   0.27126   0.27509
  Beta virt. eigenvalues --    0.27710   0.32166   0.32269   0.41049   0.43382
  Beta virt. eigenvalues --    0.44807   0.44814   0.46349   0.46353   0.47419
  Beta virt. eigenvalues --    0.47814   0.50492   0.50501   0.51772   0.55225
  Beta virt. eigenvalues --    0.60075   0.60418   0.76885   0.78013   0.78230
  Beta virt. eigenvalues --    0.80630   0.80640   0.91656   1.05292   1.05492
  Beta virt. eigenvalues --    1.09326   1.18267   1.18673   1.36712   1.37491
  Beta virt. eigenvalues --    1.37491   1.37998   1.37998   1.39502   1.39520
  Beta virt. eigenvalues --    1.44074   1.44087   1.45304   1.45306   1.46367
  Beta virt. eigenvalues --    1.46951   1.47455   1.57904   1.60357   1.61012
  Beta virt. eigenvalues --    1.66781   1.66797   1.84218   1.87082   1.87499
  Beta virt. eigenvalues --    1.89608   1.94340   1.94340   2.03398   2.03400
  Beta virt. eigenvalues --    2.20667   2.25953   2.26529   2.75894   3.13433
  Beta virt. eigenvalues --    3.13847   3.22733   3.23193   3.23862   3.23883
  Beta virt. eigenvalues --    3.29858   3.76940   3.93133   3.93133   3.94130
  Beta virt. eigenvalues --    3.94130   4.01361   4.02371   4.03044   4.03052
  Beta virt. eigenvalues --    4.07113   4.07151   4.10932   4.10932   4.15371
  Beta virt. eigenvalues --    4.25891   4.26777   4.40695   4.41528   4.49235
  Beta virt. eigenvalues --    4.49421   4.50751   5.21176   5.61241   5.61833
  Beta virt. eigenvalues --    5.63689   6.79325   6.79325   7.44264   7.44265
  Beta virt. eigenvalues --    7.86019   7.91596   7.91894   8.49570   8.94230
  Beta virt. eigenvalues --    8.94230   9.27052   9.27301   9.40566   9.40962
  Beta virt. eigenvalues --   10.10245  10.68271  17.12094
          Condensed to atoms (all electrons):
               1          2
     1  B    4.711624   0.198525
     2  H    0.198525   0.891325
          Atomic-Atomic Spin Densities.
               1          2
     1  B   -0.000000   0.000000
     2  H    0.000000   0.000000
 Mulliken charges and spin densities:
               1          2
     1  B    0.089851  -0.000000
     2  H   -0.089851   0.000000
 Sum of Mulliken charges =   0.00000  -0.00000
 Mulliken charges and spin densities with hydrogens summed into heavy atoms:
               1          2
     1  B    0.000000  -0.000000
 Electronic spatial extent (au):  <R**2>=             20.8438
 Charge=              0.0000 electrons
 Dipole moment (field-independent basis, Debye):
    X=              0.0000    Y=             -0.0000    Z=             -1.5030  Tot=              1.5030
 Quadrupole moment (field-independent basis, Debye-Ang):
   XX=             -6.2670   YY=             -7.3702   ZZ=             -9.5552
   XY=              0.0000   XZ=             -0.0000   YZ=              0.0000
 Traceless Quadrupole moment (field-independent basis, Debye-Ang):
   XX=              1.4638   YY=              0.3606   ZZ=             -1.8244
   XY=              0.0000   XZ=             -0.0000   YZ=              0.0000
 Octapole moment (field-independent basis, Debye-Ang**2):
  XXX=             -0.0000  YYY=             -0.0000  ZZZ=             -5.0505  XYY=              0.0000
  XXY=             -0.0000  XXZ=             -1.3938  XZZ=              0.0000  YZZ=             -0.0000
  YYZ=             -1.8158  XYZ=             -0.0000
 Hexadecapole moment (field-independent basis, Debye-Ang**3):
 XXXX=             -8.6578 YYYY=            -11.8628 ZZZZ=            -23.6503 XXXY=             -0.0000
 XXXZ=             -0.0000 YYYX=              0.0000 YYYZ=              0.0000 ZZZX=             -0.0000
 ZZZY=              0.0000 XXYY=             -3.4200 XXZZ=             -5.4844 YYZZ=             -6.1583
 XXYZ=              0.0000 YYXZ=             -0.0000 ZZXY=              0.0000
 N-N= 2.405350958727D+00 E-N=-6.293071857739D+01  KE= 2.526158892123D+01
 Leave Link  601 at Sun May 22 18:38:28 2022, MaxMem=   104857600 cpu:               0.1 elap:               0.1
 (Enter /apps/software/g16/l9999.exe)
 1\1\GINC-CNODE08\SP\UCCSD-FC\Aug-CC-pVQZ\B1H1\LCZ\22-May-2022\0\\#p UH
 F/aug-cc-pVQZ guess=read CCSD=FC\\BH UCCSD at 1.1 Angstrom\\0,1\B,0,0.
 ,0.,0.\H,0,1.1,0.,0.\\Version=ES64L-G16RevA.03\HF=-25.1320902\MP2=-25.
 1966364\MP3=-25.2084893\MP4D=-25.212828\MP4DQ=-25.2117146\PUHF=-25.141
 1526\PMP2-0=-25.2055218\PMP3-0=-25.2169204\MP4SDQ=-25.2123755\CCSD=-25
 .2251055\S2=0.507895\S2-1=0.48797\S2A=0.004743\RMSD=2.786e-10\PG=C*V [
 C*(H1B1)]\\@


 A SCIENTIST IS SOMEONE WHOSE CURIOSITY SURVIVES
 EDUCATION'S ASSAULTS ON IT.
                          - SIR HERMANN BONDI
 Job cpu time:       0 days  0 hours  0 minutes 24.3 seconds.
 Elapsed time:       0 days  0 hours  0 minutes 24.4 seconds.
 File lengths (MBytes):  RWF=    377 Int=      0 D2E=      0 Chk=     67 Scr=      1
 Normal termination of Gaussian 16 at Sun May 22 18:38:28 2022.

Sender: Unischeduler System <lcz@mgt01>
Subject: Job 134209: <#!/bin/bash
#BSUB -J intel
#BSUB -o BH-1.1-UCCSD-G.out
#BSUB -n 8
#BSUB -q cqueue
#BSUB -R span[hosts=1]
export g16root=/apps/software
source /apps/software/g16/bsd/g16.profile
export GAUSS_SCRDIR=/scratch
/apps/software/g16/g16 < BH-1.1-UCCSD-G.inp > BH-1.1-UCCSD-G.out> Done

Job <#!/bin/bash
#BSUB -J intel
#BSUB -o BH-1.1-UCCSD-G.out
#BSUB -n 8
#BSUB -q cqueue
#BSUB -R span[hosts=1]
export g16root=/apps/software
source /apps/software/g16/bsd/g16.profile
export GAUSS_SCRDIR=/scratch
/apps/software/g16/g16 < BH-1.1-UCCSD-G.inp > BH-1.1-UCCSD-G.out> was submitted from host <mgt01> by user <lcz>.
Job was executed on host(s) <8*cnode08>, in queue <cqueue>, as user <lcz>.
</apps/users/lcz> was used as the home directory.
</apps/users/lcz/exe13/UCCSD> was used as the working directory.
Started at 2022-05-22 18:38:03
Results reported at 2022-05-22 18:38:28

Your job looked like:

------------------------------------------------------------
# User input
#!/bin/bash
#BSUB -J intel
#BSUB -o BH-1.1-UCCSD-G.out
#BSUB -n 8
#BSUB -q cqueue
#BSUB -R span[hosts=1]
export g16root=/apps/software
source /apps/software/g16/bsd/g16.profile
export GAUSS_SCRDIR=/scratch
/apps/software/g16/g16 < BH-1.1-UCCSD-G.inp > BH-1.1-UCCSD-G.out
------------------------------------------------------------

Successfully completed.

Resource usage summary:

    CPU time   :           22.66 sec.
    Max Memory :               499 MB
    Max Processes  :               5


The output (if any) follows:

