 Entering Gaussian System, Link 0=/apps/software/g16/g16
 Initial command:
 /apps/software/g16/l1.exe "/scratch/Gau-310458.inp" -scrdir="/scratch/"
 Entering Link 1 = /apps/software/g16/l1.exe PID=    310459.
  
 Copyright (c) 1988,1990,1992,1993,1995,1998,2003,2009,2016,
            Gaussian, Inc.  All Rights Reserved.
  
 This is part of the Gaussian(R) 16 program.  It is based on
 the Gaussian(R) 09 system (copyright 2009, Gaussian, Inc.),
 the Gaussian(R) 03 system (copyright 2003, Gaussian, Inc.),
 the Gaussian(R) 98 system (copyright 1998, Gaussian, Inc.),
 the Gaussian(R) 94 system (copyright 1995, Gaussian, Inc.),
 the Gaussian 92(TM) system (copyright 1992, Gaussian, Inc.),
 the Gaussian 90(TM) system (copyright 1990, Gaussian, Inc.),
 the Gaussian 88(TM) system (copyright 1988, Gaussian, Inc.),
 the Gaussian 86(TM) system (copyright 1986, Carnegie Mellon
 University), and the Gaussian 82(TM) system (copyright 1983,
 Carnegie Mellon University). Gaussian is a federally registered
 trademark of Gaussian, Inc.
  
 This software contains proprietary and confidential information,
 including trade secrets, belonging to Gaussian, Inc.
  
 This software is provided under written license and may be
 used, copied, transmitted, or stored only in accord with that
 written license.
  
 The following legend is applicable only to US Government
 contracts under FAR:
  
                    RESTRICTED RIGHTS LEGEND
  
 Use, reproduction and disclosure by the US Government is
 subject to restrictions as set forth in subparagraphs (a)
 and (c) of the Commercial Computer Software - Restricted
 Rights clause in FAR 52.227-19.
  
 Gaussian, Inc.
 340 Quinnipiac St., Bldg. 40, Wallingford CT 06492
  
  
 ---------------------------------------------------------------
 Warning -- This program may not be used in any manner that
 competes with the business of Gaussian, Inc. or will provide
 assistance to any competitor of Gaussian, Inc.  The licensee
 of this program is prohibited from giving any competitor of
 Gaussian, Inc. access to this program.  By using this program,
 the user acknowledges that Gaussian, Inc. is engaged in the
 business of creating and licensing software in the field of
 computational chemistry and represents and warrants to the
 licensee that it is not a competitor of Gaussian, Inc. and that
 it will not use this program in any manner prohibited above.
 ---------------------------------------------------------------
  

 Cite this work as:
 Gaussian 16, Revision A.03,
 M. J. Frisch, G. W. Trucks, H. B. Schlegel, G. E. Scuseria, 
 M. A. Robb, J. R. Cheeseman, G. Scalmani, V. Barone, 
 G. A. Petersson, H. Nakatsuji, X. Li, M. Caricato, A. V. Marenich, 
 J. Bloino, B. G. Janesko, R. Gomperts, B. Mennucci, H. P. Hratchian, 
 J. V. Ortiz, A. F. Izmaylov, J. L. Sonnenberg, D. Williams-Young, 
 F. Ding, F. Lipparini, F. Egidi, J. Goings, B. Peng, A. Petrone, 
 T. Henderson, D. Ranasinghe, V. G. Zakrzewski, J. Gao, N. Rega, 
 G. Zheng, W. Liang, M. Hada, M. Ehara, K. Toyota, R. Fukuda, 
 J. Hasegawa, M. Ishida, T. Nakajima, Y. Honda, O. Kitao, H. Nakai, 
 T. Vreven, K. Throssell, J. A. Montgomery, Jr., J. E. Peralta, 
 F. Ogliaro, M. J. Bearpark, J. J. Heyd, E. N. Brothers, K. N. Kudin, 
 V. N. Staroverov, T. A. Keith, R. Kobayashi, J. Normand, 
 K. Raghavachari, A. P. Rendell, J. C. Burant, S. S. Iyengar, 
 J. Tomasi, M. Cossi, J. M. Millam, M. Klene, C. Adamo, R. Cammi, 
 J. W. Ochterski, R. L. Martin, K. Morokuma, O. Farkas, 
 J. B. Foresman, and D. J. Fox, Gaussian, Inc., Wallingford CT, 2016.
 
 ******************************************
 Gaussian 16:  ES64L-G16RevA.03 25-Dec-2016
                22-May-2022 
 ******************************************
 %oldchk=BH-2.0-UHF-G.chk
 %chk=BH-2.0-UCCSD-G.chk
 Copying data from "BH-2.0-UHF-G.chk" to current chk file "BH-2.0-UCCSD-G.chk"
 IOpt=  2 FromEx=T IUOpen= 4 IOptOp= 5 NList=   0 IFRang= 0 IUIn= 4 IUOut= 2.
 -------------------------------------
 #p UHF/aug-cc-pVQZ guess=read CCSD=FC
 -------------------------------------
 1/38=1,172=1/1;
 2/12=2,17=6,18=5,40=1/2;
 3/5=16,6=2,7=10,11=2,25=1,30=1,116=2/1,2,3;
 4/5=1/1;
 5/5=2,38=6/2;
 8/6=4,9=120000,10=1/1,4;
 9/5=7/13;
 6/7=2,8=2,9=2,10=2/1;
 99/5=1,9=1/99;
 Leave Link    1 at Sun May 22 18:34:14 2022, MaxMem=   104857600 cpu:               0.0 elap:               0.0
 (Enter /apps/software/g16/l101.exe)
 ------------------------
 BH UCCSD at 2.0 Angstrom
 ------------------------
 Symbolic Z-matrix:
 Charge =  0 Multiplicity = 1
 B                     0.        0.        0. 
 H                     2.        0.        0. 
 
 ITRead=  0  0
 MicOpt= -1 -1
 NAtoms=      2 NQM=        2 NQMF=       0 NMMI=      0 NMMIF=      0
                NMic=       0 NMicF=      0.
                    Isotopes and Nuclear Properties:
 (Nuclear quadrupole moments (NQMom) in fm**2, nuclear magnetic moments (NMagM)
  in nuclear magnetons)

  Atom         1           2
 IAtWgt=          11           1
 AtmWgt=  11.0093053   1.0078250
 NucSpn=           3           1
 AtZEff=  -0.0000000  -0.0000000
 NQMom=    4.0590000   0.0000000
 NMagM=    2.6886370   2.7928460
 AtZNuc=   5.0000000   1.0000000
 Leave Link  101 at Sun May 22 18:34:14 2022, MaxMem=   104857600 cpu:               0.1 elap:               0.1
 (Enter /apps/software/g16/l202.exe)
                          Input orientation:                          
 ---------------------------------------------------------------------
 Center     Atomic      Atomic             Coordinates (Angstroms)
 Number     Number       Type             X           Y           Z
 ---------------------------------------------------------------------
      1          5           0        0.000000    0.000000    0.000000
      2          1           0        2.000000    0.000000    0.000000
 ---------------------------------------------------------------------
 Stoichiometry    BH
 Framework group  C*V[C*(HB)]
 Deg. of freedom     1
 Full point group                 C*V     NOp   4
 Largest Abelian subgroup         C2V     NOp   4
 Largest concise Abelian subgroup C1      NOp   1
                         Standard orientation:                         
 ---------------------------------------------------------------------
 Center     Atomic      Atomic             Coordinates (Angstroms)
 Number     Number       Type             X           Y           Z
 ---------------------------------------------------------------------
      1          5           0        0.000000    0.000000    0.333333
      2          1           0        0.000000    0.000000   -1.666667
 ---------------------------------------------------------------------
 Rotational constants (GHZ):           0.0000000         136.8399546         136.8399546
 Leave Link  202 at Sun May 22 18:34:14 2022, MaxMem=   104857600 cpu:               0.0 elap:               0.0
 (Enter /apps/software/g16/l301.exe)
 Standard basis: Aug-CC-pVQZ (5D, 7F)
 Ernie: Thresh=  0.10000D-02 Tol=  0.10000D-05 Strict=F.
 Ernie:  4 primitive shells out of 54 were deleted.
 There are    68 symmetry adapted cartesian basis functions of A1  symmetry.
 There are    18 symmetry adapted cartesian basis functions of A2  symmetry.
 There are    37 symmetry adapted cartesian basis functions of B1  symmetry.
 There are    37 symmetry adapted cartesian basis functions of B2  symmetry.
 There are    50 symmetry adapted basis functions of A1  symmetry.
 There are    16 symmetry adapted basis functions of A2  symmetry.
 There are    30 symmetry adapted basis functions of B1  symmetry.
 There are    30 symmetry adapted basis functions of B2  symmetry.
   126 basis functions,   180 primitive gaussians,   160 cartesian basis functions
     3 alpha electrons        3 beta electrons
       nuclear repulsion energy         1.3229430273 Hartrees.
 IExCor=    0 DFT=F Ex=HF Corr=None ExCW=0 ScaHFX=  1.000000
 ScaDFX=  1.000000  1.000000  1.000000  1.000000 ScalE2=  1.000000  1.000000
 IRadAn=      5 IRanWt=     -1 IRanGd=            0 ICorTp=0 IEmpDi=  4
 NAtoms=    2 NActive=    2 NUniq=    2 SFac= 1.00D+00 NAtFMM=   60 NAOKFM=F Big=F
 Integral buffers will be    131072 words long.
 Raffenetti 2 integral format.
 Two-electron integral symmetry is turned on.
 Leave Link  301 at Sun May 22 18:34:14 2022, MaxMem=   104857600 cpu:               0.1 elap:               0.1
 (Enter /apps/software/g16/l302.exe)
 NPDir=0 NMtPBC=     1 NCelOv=     1 NCel=       1 NClECP=     1 NCelD=      1
         NCelK=      1 NCelE2=     1 NClLst=     1 CellRange=     0.0.
 One-electron integrals computed using PRISM.
 One-electron integral symmetry used in STVInt
 NBasis=   126 RedAO= T EigKep=  5.32D-04  NBF=    50    16    30    30
 NBsUse=   126 1.00D-06 EigRej= -1.00D+00 NBFU=    50    16    30    30
 Leave Link  302 at Sun May 22 18:34:14 2022, MaxMem=   104857600 cpu:               0.1 elap:               0.1
 (Enter /apps/software/g16/l303.exe)
 DipDrv:  MaxL=1.
 Leave Link  303 at Sun May 22 18:34:14 2022, MaxMem=   104857600 cpu:               0.0 elap:               0.0
 (Enter /apps/software/g16/l401.exe)
 Initial guess from the checkpoint file:  "BH-2.0-UCCSD-G.chk"
 B after Tr=     0.000000    0.000000    0.000000
         Rot=    1.000000    0.000000    0.000000    0.000000 Ang=   0.00 deg.
 Guess basis will be translated and rotated to current coordinates.
 JPrj=2 DoOrth=T DoCkMO=T.
 Initial guess orbital symmetries:
 Alpha Orbitals:
       Occupied  (SG) (?A) (?A)
       Virtual   (?A) (?A) (?A) (?A) (?A) (?A) (?A) (SG) (?B) (?B)
                 (?B) (?B) (SG) (?A) (PI) (PI) (?A) (?A) (?A) (?A)
                 (?C) (?C) (?C) (?C) (?C) (?C) (?C) (?C) (SG) (PI)
                 (PI) (SG) (SG) (DLTA) (DLTA) (?D) (?D) (?D) (PI)
                 (PI) (SG) (PI) (PI) (SG) (?E) (?E) (?F) (?F) (?E)
                 (?E) (?F) (?F) (?F) (?F) (?F) (?F) (?F) (?G) (?G)
                 (?G) (?G) (?G) (SG) (PHI) (PHI) (PI) (PI) (SG)
                 (SG) (DLTA) (DLTA) (SG) (PI) (PI) (DLTA) (DLTA)
                 (PI) (PI) (PI) (PI) (SG) (SG) (PI) (PI) (?H) (?H)
                 (?H) (?H) (?H) (?H) (?I) (?I) (?I) (?I) (?I) (?I)
                 (PHI) (PHI) (DLTA) (DLTA) (PI) (PI) (PI) (PI)
                 (SG) (SG) (PHI) (PHI) (DLTA) (DLTA) (PI) (PI)
                 (SG) (SG) (PI) (PI) (DLTA) (DLTA) (SG) (PI) (PI)
                 (SG) (SG)
 Beta  Orbitals:
       Occupied  (SG) (?A) (?A)
       Virtual   (?A) (?A) (?A) (?A) (?A) (?A) (?A) (?A) (?A) (?A)
                 (?A) (?A) (SG) (SG) (PI) (PI) (?B) (?B) (?B) (?B)
                 (?C) (?C) (?C) (?C) (?D) (?D) (?D) (?D) (SG) (PI)
                 (PI) (SG) (SG) (DLTA) (DLTA) (PI) (PI) (SG) (PI)
                 (PI) (SG) (PI) (PI) (SG) (?E) (?E) (?E) (?E) (?F)
                 (?F) (?F) (?F) (?F) (?F) (?F) (?F) (?F) (?G) (?G)
                 (?G) (?G) (?G) (SG) (PHI) (PHI) (PI) (PI) (SG)
                 (SG) (DLTA) (DLTA) (SG) (PI) (PI) (DLTA) (DLTA)
                 (PI) (PI) (PI) (PI) (SG) (SG) (PI) (PI) (?H) (?H)
                 (?H) (?H) (?H) (?H) (?H) (?H) (?H) (?H) (?H) (?H)
                 (?I) (?I) (?I) (?I) (?I) (?I) (PI) (PI) (SG) (SG)
                 (PHI) (PHI) (DLTA) (DLTA) (PI) (PI) (SG) (SG)
                 (PI) (PI) (DLTA) (DLTA) (SG) (PI) (PI) (SG) (SG)
 Initial guess <Sx>= 0.0000 <Sy>= 0.0000 <Sz>= 0.0000 <S**2>= 0.5247 S= 0.3802
 Leave Link  401 at Sun May 22 18:34:14 2022, MaxMem=   104857600 cpu:               0.1 elap:               0.1
 (Enter /apps/software/g16/l502.exe)
 Keep R1 and R2 ints in memory in symmetry-blocked form, NReq=40143665.
 FoFCou: FMM=F IPFlag=           0 FMFlag=           0 FMFlg1=           0
         NFxFlg=           0 DoJE=F BraDBF=F KetDBF=F FulRan=T
         wScrn=  0.000000 ICntrl=       600 IOpCl=  0 I1Cent=           0 NGrid=           0
         NMat0=    1 NMatS0=   8001 NMatT0=    0 NMatD0=    1 NMtDS0=    0 NMtDT0=    0
 Petite list used in FoFCou.
 UHF open shell SCF:
 Using DIIS extrapolation, IDIIS=  1040.
 NGot=   104857600 LenX=    88563632 LenY=    88537591
 Requested convergence on RMS density matrix=1.00D-08 within 128 cycles.
 Requested convergence on MAX density matrix=1.00D-06.
 Requested convergence on             energy=1.00D-06.
 No special actions if energy rises.
 An orbital has undefined symmetry, so N**3 symmetry is turned off.

 Cycle   1  Pass 1  IDiag  1:
 Density matrix breaks symmetry, PCut= 1.00D-07
 Density matrix has no symmetry -- integrals replicated.
 E= -25.0557189216552    
 DIIS: error= 1.45D-08 at cycle   1 NSaved=   1.
 NSaved= 1 IEnMin= 1 EnMin= -25.0557189216552     IErMin= 1 ErrMin= 1.45D-08
 ErrMax= 1.45D-08  0.00D+00 EMaxC= 1.00D-01 BMatC= 5.20D-14 BMatP= 5.20D-14
 IDIUse=1 WtCom= 1.00D+00 WtEn= 0.00D+00
 Coeff-Com:  0.100D+01
 Coeff:      0.100D+01
 Gap=     0.355 Goal=   None    Shift=    0.000
 Gap=     0.403 Goal=   None    Shift=    0.000
 RMSDP=1.51D-09 MaxDP=7.66D-08              OVMax= 5.04D-08

 Density matrix breaks symmetry, PCut= 1.00D-07
 Density matrix has no symmetry -- integrals replicated.
 SCF Done:  E(UHF) =  -25.0557189217     A.U. after    1 cycles
            NFock=  1  Conv=0.15D-08     -V/T= 2.0060
 <Sx>= 0.0000 <Sy>= 0.0000 <Sz>= 0.0000 <S**2>= 0.5247 S= 0.3802
 <L.S>=  0.00000000000    
 KE= 2.490599209409D+01 PE=-6.036043215943D+01 EE= 9.075778116383D+00
 Annihilation of the first spin contaminant:
 S**2 before annihilation     0.5247,   after     0.1780
 Leave Link  502 at Sun May 22 18:34:18 2022, MaxMem=   104857600 cpu:               3.7 elap:               3.7
 (Enter /apps/software/g16/l801.exe)
 Windowed orbitals will be sorted by symmetry type.
 ExpMin= 1.88D-02 ExpMax= 2.39D+04 ExpMxC= 2.30D+02 IAcc=3 IRadAn=         5 AccDes= 0.00D+00
 HarFok:  IExCor=  205 AccDes= 0.00D+00 IRadAn=         5 IDoV=-2 UseB2=F ITyADJ=14
 ICtDFT= 12500011 ScaDFX=  1.000000  1.000000  1.000000  1.000000
 DSYEVD-2 returned Info=        3401 IAlg= 4 N=    80 NDim=    80 NE2=     1309686 trying  DSYEV.
 Largest valence mixing into a core orbital is  3.38D-04
 Largest core mixing into a valence orbital is  1.11D-04
 Largest valence mixing into a core orbital is  4.05D-04
 Largest core mixing into a valence orbital is  1.09D-04
 Range of M.O.s used for correlation:     2   126
 NBasis=   126 NAE=     3 NBE=     3 NFC=     1 NFV=     0
 NROrb=    125 NOA=     2 NOB=     2 NVA=   123 NVB=   123

 **** Warning!!: The largest alpha MO coefficient is  0.15938040D+02


 **** Warning!!: The largest beta MO coefficient is  0.14856893D+02

 Leave Link  801 at Sun May 22 18:34:18 2022, MaxMem=   104857600 cpu:               0.1 elap:               0.1
 (Enter /apps/software/g16/l804.exe)
 Open-shell transformation, MDV=   104857600 ITran=4 ISComp=1.
 Unit  1 TFree=        991730 TCopy=        422292.
 Semi-Direct transformation.
 ModeAB=           2 MOrb=             2 LenV=     104171206
 LASXX=      1914004 LTotXX=     1914004 LenRXX=     1914004
 LTotAB=     1960875 MaxLAS=     3220000 LenRXY=     3220000
 NonZer=     3828008 LenScr=     6455808 LnRSAI=           0
 LnScr1=           0 LExtra=           0 Total=     11589812
 MaxDsk=          -1 SrtSym=           F ITran=            4
 DoSDTr:  NPSUse=  1
 JobTyp=1 Pass  1:  I=   1 to   2.
 (rs|ai) integrals will be sorted in core.
 Complete sort for first half transformation.
 First half transformation complete.
 Complete sort for second half transformation.
 Second half transformation complete.
 ModeAB=           2 MOrb=             2 LenV=     104171206
 LASXX=      1914004 LTotXX=     1914004 LenRXX=     3220000
 LTotAB=     1898874 MaxLAS=     3220000 LenRXY=     1898874
 NonZer=     3828008 LenScr=     6455808 LnRSAI=           0
 LnScr1=           0 LExtra=           0 Total=     11574682
 MaxDsk=          -1 SrtSym=           F ITran=            4
 DoSDTr:  NPSUse=  1
 JobTyp=2 Pass  1:  I=   1 to   2.
 (rs|ai) integrals will be sorted in core.
 Complete sort for first half transformation.
 First half transformation complete.
 Complete sort for second half transformation.
 Second half transformation complete.
 SymMOI:  orbitals are not symmetric.
 Spin components of T(2) and E(2):
     alpha-alpha T2 =       0.1699136569D-02 E2=     -0.3259730369D-02
     alpha-beta  T2 =       0.3284993063D-01 E2=     -0.5874403109D-01
     beta-beta   T2 =       0.8365020721D-03 E2=     -0.1481838732D-02
 ANorm=    0.1017538977D+01
 E2 =    -0.6348560019D-01 EUMP2 =    -0.25119204521842D+02
 (S**2,0)=  0.52470D+00           (S**2,1)=  0.46181D+00
 E(PUHF)=      -0.25081572798D+02        E(PMP2)=      -0.25143742697D+02
 Leave Link  804 at Sun May 22 18:34:29 2022, MaxMem=   104857600 cpu:              10.6 elap:              10.6
 (Enter /apps/software/g16/l913.exe)
 CIDS:  MDV=   104857600.
 Frozen-core window:  NFC=   1 NFV=   0.
 IFCWin=0 IBDFC=1 NFBD=     0     0 NFCmp=     0     0 NFFFC=     0     0
 Using original routines for 1st iteration.
 Using DD4UQ or CC4UQ for 2nd and later iterations.
 Keep R2 and R3 ints in memory in symmetry-blocked form, NReq=40147367.
 FoFCou: FMM=F IPFlag=           0 FMFlag=           0 FMFlg1=           0
         NFxFlg=           0 DoJE=F BraDBF=F KetDBF=F FulRan=T
         wScrn=  0.000000 ICntrl=       600 IOpCl=  0 I1Cent=           0 NGrid=           0
         NMat0=    1 NMatS0=   8001 NMatT0=    0 NMatD0=    1 NMtDS0=    0 NMtDT0=    0
 Petite list used in FoFCou.
 CIDS: In Core Option IDoMem=           1.
 Coupled Cluster theory with single and double substitutions
 ===========================================================
 Iterations=  50 Convergence= 0.100D-06
 Produce multiple copies of IABC intergrals
 Iteration Nr.   1
 **********************
 DD1Dir will call FoFMem   1 times, MxPair=        10
 NAB=     4 NAA=     1 NBB=     1.
 E(PMP3)=      -0.25156746129D+02
 MP4(R+Q)=  0.16286868D-02
 Maximum subspace dimension=  5
 A-vector RMS=  5.0387018D-03 Max=  2.0367252D-02 conv= 1.00D-05.
 RLE energy=       -0.0809975257
 E3=       -0.15276666D-01        EUMP3=      -0.25134481188D+02
 E4(DQ)=   -0.55634600D-02        UMP4(DQ)=   -0.25140044648D+02
 E4(SDQ)=  -0.72222721D-02        UMP4(SDQ)=  -0.25141703460D+02
 VARIATIONAL ENERGIES WITH THE FIRST-ORDER WAVEFUNCTION:
 DE(Corr)= -0.77211513E-01 E(Corr)=     -25.132930434    
 NORM(A)=   0.10362291D+01
 Iteration Nr.   2
 **********************
 DD1Dir will call FoFMem   1 times, MxPair=        10
 NAB=     4 NAA=     1 NBB=     1.
 A-vector RMS=  4.0273032D-03 Max=  1.7434921D-02 conv= 1.00D-05.
 RLE energy=       -0.0959795441
 DE(Corr)= -0.86683651E-01 E(CORR)=     -25.142402573     Delta=-9.47D-03
 NORM(A)=   0.10680396D+01
 Iteration Nr.   3
 **********************
 DD1Dir will call FoFMem   1 times, MxPair=        10
 NAB=     4 NAA=     1 NBB=     1.
 A-vector RMS=  3.3065513D-03 Max=  1.5561016D-02 conv= 1.00D-05.
 RLE energy=       -0.1025253511
 DE(Corr)= -0.95994176E-01 E(CORR)=     -25.151713097     Delta=-9.31D-03
 NORM(A)=   0.11065947D+01
 Iteration Nr.   4
 **********************
 DD1Dir will call FoFMem   1 times, MxPair=        10
 NAB=     4 NAA=     1 NBB=     1.
 A-vector RMS=  1.8782353D-03 Max=  9.5574927D-03 conv= 1.00D-05.
 RLE energy=       -0.1068596538
 DE(Corr)= -0.10284715     E(CORR)=     -25.158566075     Delta=-6.85D-03
 NORM(A)=   0.11407503D+01
 Iteration Nr.   5
 **********************
 DD1Dir will call FoFMem   1 times, MxPair=        10
 NAB=     4 NAA=     1 NBB=     1.
 A-vector RMS=  1.1311721D-03 Max=  6.9564313D-03 conv= 1.00D-05.
 RLE energy=       -0.1071231623
 DE(Corr)= -0.10663859     E(CORR)=     -25.162357511     Delta=-3.79D-03
 NORM(A)=   0.11516222D+01
 Iteration Nr.   6
 **********************
 DD1Dir will call FoFMem   1 times, MxPair=        10
 NAB=     4 NAA=     1 NBB=     1.
 A-vector RMS=  6.4148724D-04 Max=  4.5090005D-03 conv= 1.00D-05.
 RLE energy=       -0.1076687383
 DE(Corr)= -0.10720406     E(CORR)=     -25.162922980     Delta=-5.65D-04
 NORM(A)=   0.11573131D+01
 Iteration Nr.   7
 **********************
 DD1Dir will call FoFMem   1 times, MxPair=        10
 NAB=     4 NAA=     1 NBB=     1.
 A-vector RMS=  4.5439196D-04 Max=  2.9212812D-03 conv= 1.00D-05.
 RLE energy=       -0.1077146101
 DE(Corr)= -0.10757663     E(CORR)=     -25.163295552     Delta=-3.73D-04
 NORM(A)=   0.11600764D+01
 Iteration Nr.   8
 **********************
 DD1Dir will call FoFMem   1 times, MxPair=        10
 NAB=     4 NAA=     1 NBB=     1.
 A-vector RMS=  2.9959562D-04 Max=  1.5187525D-03 conv= 1.00D-05.
 RLE energy=       -0.1078114164
 DE(Corr)= -0.10766087     E(CORR)=     -25.163379793     Delta=-8.42D-05
 NORM(A)=   0.11630961D+01
 Iteration Nr.   9
 **********************
 DD1Dir will call FoFMem   1 times, MxPair=        10
 NAB=     4 NAA=     1 NBB=     1.
 A-vector RMS=  1.7558213D-04 Max=  8.9285090D-04 conv= 1.00D-05.
 RLE energy=       -0.1078100446
 DE(Corr)= -0.10778985     E(CORR)=     -25.163508767     Delta=-1.29D-04
 NORM(A)=   0.11643354D+01
 Iteration Nr.  10
 **********************
 DD1Dir will call FoFMem   1 times, MxPair=        10
 NAB=     4 NAA=     1 NBB=     1.
 A-vector RMS=  1.0269411D-04 Max=  5.0524558D-04 conv= 1.00D-05.
 RLE energy=       -0.1077547573
 DE(Corr)= -0.10780333     E(CORR)=     -25.163522251     Delta=-1.35D-05
 NORM(A)=   0.11644701D+01
 Iteration Nr.  11
 **********************
 DD1Dir will call FoFMem   1 times, MxPair=        10
 NAB=     4 NAA=     1 NBB=     1.
 A-vector RMS=  6.0661095D-05 Max=  2.7938432D-04 conv= 1.00D-05.
 RLE energy=       -0.1077323831
 DE(Corr)= -0.10776729     E(CORR)=     -25.163486210     Delta= 3.60D-05
 NORM(A)=   0.11643426D+01
 Iteration Nr.  12
 **********************
 DD1Dir will call FoFMem   1 times, MxPair=        10
 NAB=     4 NAA=     1 NBB=     1.
 A-vector RMS=  3.3907009D-05 Max=  1.3430141D-04 conv= 1.00D-05.
 RLE energy=       -0.1077066959
 DE(Corr)= -0.10773432     E(CORR)=     -25.163453241     Delta= 3.30D-05
 NORM(A)=   0.11641560D+01
 Iteration Nr.  13
 **********************
 DD1Dir will call FoFMem   1 times, MxPair=        10
 NAB=     4 NAA=     1 NBB=     1.
 A-vector RMS=  2.0466604D-05 Max=  1.0450270D-04 conv= 1.00D-05.
 RLE energy=       -0.1077058256
 DE(Corr)= -0.10771221     E(CORR)=     -25.163431134     Delta= 2.21D-05
 NORM(A)=   0.11640650D+01
 Iteration Nr.  14
 **********************
 DD1Dir will call FoFMem   1 times, MxPair=        10
 NAB=     4 NAA=     1 NBB=     1.
 A-vector RMS=  1.2442857D-05 Max=  8.4679185D-05 conv= 1.00D-05.
 RLE energy=       -0.1077033901
 DE(Corr)= -0.10770618     E(CORR)=     -25.163425099     Delta= 6.04D-06
 NORM(A)=   0.11640263D+01
 Iteration Nr.  15
 **********************
 DD1Dir will call FoFMem   1 times, MxPair=        10
 NAB=     4 NAA=     1 NBB=     1.
 A-vector RMS=  8.0113129D-06 Max=  6.3823504D-05 conv= 1.00D-05.
 RLE energy=       -0.1077052369
 DE(Corr)= -0.10770492     E(CORR)=     -25.163423846     Delta= 1.25D-06
 NORM(A)=   0.11640133D+01
 Iteration Nr.  16
 **********************
 DD1Dir will call FoFMem   1 times, MxPair=        10
 NAB=     4 NAA=     1 NBB=     1.
 A-vector RMS=  5.7190178D-06 Max=  4.7041823D-05 conv= 1.00D-05.
 RLE energy=       -0.1077046132
 DE(Corr)= -0.10770565     E(CORR)=     -25.163424568     Delta=-7.21D-07
 NORM(A)=   0.11639918D+01
 Iteration Nr.  17
 **********************
 DD1Dir will call FoFMem   1 times, MxPair=        10
 NAB=     4 NAA=     1 NBB=     1.
 A-vector RMS=  4.0291039D-06 Max=  2.9056343D-05 conv= 1.00D-05.
 RLE energy=       -0.1077046370
 DE(Corr)= -0.10770532     E(CORR)=     -25.163424244     Delta= 3.24D-07
 NORM(A)=   0.11639715D+01
 Iteration Nr.  18
 **********************
 DD1Dir will call FoFMem   1 times, MxPair=        10
 NAB=     4 NAA=     1 NBB=     1.
 A-vector RMS=  2.8404088D-06 Max=  1.5176425D-05 conv= 1.00D-05.
 RLE energy=       -0.1077043812
 DE(Corr)= -0.10770495     E(CORR)=     -25.163423871     Delta= 3.73D-07
 NORM(A)=   0.11639551D+01
 Iteration Nr.  19
 **********************
 DD1Dir will call FoFMem   1 times, MxPair=        10
 NAB=     4 NAA=     1 NBB=     1.
 A-vector RMS=  1.8604968D-06 Max=  8.8488799D-06 conv= 1.00D-05.
 RLE energy=       -0.1077043248
 DE(Corr)= -0.10770460     E(CORR)=     -25.163423526     Delta= 3.45D-07
 NORM(A)=   0.11639443D+01
 Iteration Nr.  20
 **********************
 DD1Dir will call FoFMem   1 times, MxPair=        10
 NAB=     4 NAA=     1 NBB=     1.
 A-vector RMS=  1.1711333D-06 Max=  6.4104876D-06 conv= 1.00D-05.
 RLE energy=       -0.1077044716
 DE(Corr)= -0.10770448     E(CORR)=     -25.163423397     Delta= 1.29D-07
 NORM(A)=   0.11639385D+01
 Iteration Nr.  21
 **********************
 DD1Dir will call FoFMem   1 times, MxPair=        10
 NAB=     4 NAA=     1 NBB=     1.
 A-vector RMS=  7.2059856D-07 Max=  4.3025559D-06 conv= 1.00D-05.
 RLE energy=       -0.1077044178
 DE(Corr)= -0.10770450     E(CORR)=     -25.163423422     Delta=-2.56D-08
 NORM(A)=   0.11639344D+01
 CI/CC converged in   21 iterations to DelEn=-2.56D-08 Conv= 1.00D-07 ErrA1= 7.21D-07 Conv= 1.00D-05
 Wavefunction amplitudes converged. E(Corr)=     -25.163423422    
 Dominant configurations:
 ***********************
 Spin Case        I    J    A    B          Value
    AA            3         5            0.162951D+00
    AA            3         9            0.133754D+00
    AA            3        11           -0.161226D+00
    BB            3        11           -0.179941D+00
   ABAB           3    3   11   11       0.137900D+00
 Largest amplitude= 1.80D-01

 S**2, projected HF & approx projected MPn energies after annihilation of
 unwanted spin states (see manual for definitions):

 spins       (S**2,0) (S**2,1)    PUHF        PMP2        PMP3        PMP4
 annihilated
 s+1        -0.09314 -0.06109  -25.081573  -25.143743  -25.156746
 s+1,s+2     0.00000  0.00000  -25.077905  -25.140157  -25.153299

 Discarding MO integrals.
 Leave Link  913 at Sun May 22 18:34:39 2022, MaxMem=   104857600 cpu:              10.7 elap:              10.7
 (Enter /apps/software/g16/l601.exe)
 Copying SCF densities to generalized density rwf, IOpCl= 1 IROHF=0.
 SCF density gives NOpUse=  1 NOpAll=  4.
 Marking SCF density as not fully symmetric.

 **********************************************************************

            Population analysis using the SCF density.

 **********************************************************************

 Orbital symmetries:
 Alpha Orbitals:
       Occupied  (SG) (?A) (?A)
       Virtual   (?A) (?A) (?A) (?A) (?A) (?A) (?A) (SG) (?B) (?B)
                 (?B) (?B) (SG) (?A) (PI) (PI) (?A) (?A) (?A) (?A)
                 (?C) (?C) (?C) (?C) (?C) (?C) (?C) (?C) (SG) (PI)
                 (PI) (SG) (SG) (DLTA) (DLTA) (?D) (?D) (?D) (PI)
                 (PI) (SG) (PI) (PI) (SG) (?E) (?E) (?F) (?F) (?E)
                 (?E) (?F) (?F) (?F) (?F) (?F) (?F) (?F) (?G) (?G)
                 (?G) (?G) (?G) (SG) (PHI) (PHI) (PI) (PI) (SG)
                 (SG) (DLTA) (DLTA) (SG) (PI) (PI) (DLTA) (DLTA)
                 (PI) (PI) (PI) (PI) (SG) (SG) (PI) (PI) (?H) (?H)
                 (?H) (?H) (?H) (?H) (?I) (?I) (?I) (?I) (?I) (?I)
                 (PHI) (PHI) (DLTA) (DLTA) (PI) (PI) (PI) (PI)
                 (SG) (SG) (PHI) (PHI) (DLTA) (DLTA) (PI) (PI)
                 (SG) (SG) (PI) (PI) (DLTA) (DLTA) (SG) (PI) (PI)
                 (SG) (SG)
 Beta  Orbitals:
       Occupied  (SG) (?A) (?A)
       Virtual   (?A) (?A) (?A) (?A) (?A) (?A) (?A) (?A) (?A) (?A)
                 (?A) (?A) (SG) (SG) (PI) (PI) (?B) (?B) (?B) (?B)
                 (?C) (?C) (?C) (?C) (?D) (?D) (?D) (?D) (SG) (PI)
                 (PI) (SG) (SG) (DLTA) (DLTA) (PI) (PI) (SG) (PI)
                 (PI) (SG) (PI) (PI) (SG) (?E) (?E) (?E) (?E) (?F)
                 (?F) (?F) (?F) (?F) (?F) (?F) (?F) (?F) (?G) (?G)
                 (?G) (?G) (?G) (SG) (PHI) (PHI) (PI) (PI) (SG)
                 (SG) (DLTA) (DLTA) (SG) (PI) (PI) (DLTA) (DLTA)
                 (PI) (PI) (PI) (PI) (SG) (SG) (PI) (PI) (?H) (?H)
                 (?H) (?H) (?H) (?H) (?H) (?H) (?H) (?H) (?H) (?H)
                 (?I) (?I) (?I) (?I) (?I) (?I) (PI) (PI) (SG) (SG)
                 (PHI) (PHI) (DLTA) (DLTA) (PI) (PI) (SG) (SG)
                 (PI) (PI) (DLTA) (DLTA) (SG) (PI) (PI) (SG) (SG)
 Unable to determine electronic state:  an orbital has unidentified symmetry.
 Alpha  occ. eigenvalues --   -7.74487  -0.56484  -0.33833
 Alpha virt. eigenvalues --    0.01693   0.01876   0.03162   0.04927   0.06990
 Alpha virt. eigenvalues --    0.07091   0.09468   0.11598   0.14116   0.14167
 Alpha virt. eigenvalues --    0.14328   0.14328   0.19697   0.25291   0.27533
 Alpha virt. eigenvalues --    0.27544   0.29927   0.30214   0.31887   0.36836
 Alpha virt. eigenvalues --    0.45692   0.45692   0.46114   0.46114   0.47717
 Alpha virt. eigenvalues --    0.47804   0.49045   0.49049   0.50979   0.54522
 Alpha virt. eigenvalues --    0.54615   0.60142   0.66126   0.76831   0.76831
 Alpha virt. eigenvalues --    0.82376   0.82386   0.82766   0.95792   0.95805
 Alpha virt. eigenvalues --    1.04028   1.13019   1.13067   1.30571   1.34025
 Alpha virt. eigenvalues --    1.34025   1.35220   1.35321   1.36068   1.36068
 Alpha virt. eigenvalues --    1.38212   1.38215   1.39830   1.41280   1.41281
 Alpha virt. eigenvalues --    1.42737   1.42737   1.47477   1.47578   1.47801
 Alpha virt. eigenvalues --    1.49277   1.49281   1.61220   1.70682   1.70682
 Alpha virt. eigenvalues --    1.77789   1.77953   1.84421   2.03011   2.05871
 Alpha virt. eigenvalues --    2.05872   2.11509   2.12754   2.12819   2.58150
 Alpha virt. eigenvalues --    2.58150   2.76532   2.76584   3.05437   3.05499
 Alpha virt. eigenvalues --    3.06473   3.41044   3.74532   3.74732   3.90011
 Alpha virt. eigenvalues --    3.90011   3.92698   3.92698   3.92905   3.92906
 Alpha virt. eigenvalues --    3.96925   3.97190   3.98456   3.99135   3.99137
 Alpha virt. eigenvalues --    4.02473   4.06314   4.06314   4.10904   4.10908
 Alpha virt. eigenvalues --    4.16452   4.16729   4.33172   4.33432   4.54174
 Alpha virt. eigenvalues --    4.75481   6.64392   6.64392   6.74138   6.74138
 Alpha virt. eigenvalues --    6.79199   6.79215   6.93217   7.79648   8.26599
 Alpha virt. eigenvalues --    8.26611   8.51679   8.51679   8.62561   8.71511
 Alpha virt. eigenvalues --    8.71526   9.29811  13.59716
  Beta  occ. eigenvalues --   -7.73748  -0.53362  -0.38374
  Beta virt. eigenvalues --    0.01942   0.02204   0.03236   0.05354   0.07286
  Beta virt. eigenvalues --    0.07427   0.09631   0.11557   0.14089   0.14147
  Beta virt. eigenvalues --    0.14388   0.14404   0.19941   0.23601   0.26622
  Beta virt. eigenvalues --    0.26666   0.30522   0.30578   0.33930   0.37530
  Beta virt. eigenvalues --    0.45667   0.45667   0.46294   0.46294   0.48732
  Beta virt. eigenvalues --    0.48798   0.49524   0.49618   0.51129   0.54523
  Beta virt. eigenvalues --    0.54635   0.57225   0.65340   0.76141   0.76142
  Beta virt. eigenvalues --    0.80206   0.80243   0.83494   0.95180   0.95308
  Beta virt. eigenvalues --    1.04713   1.12615   1.12773   1.31042   1.34206
  Beta virt. eigenvalues --    1.34206   1.36125   1.36125   1.37617   1.37796
  Beta virt. eigenvalues --    1.39096   1.39137   1.41634   1.41636   1.41715
  Beta virt. eigenvalues --    1.43047   1.43048   1.48486   1.48551   1.49114
  Beta virt. eigenvalues --    1.49698   1.49720   1.60511   1.70131   1.70131
  Beta virt. eigenvalues --    1.77786   1.77989   1.81587   2.03092   2.05504
  Beta virt. eigenvalues --    2.05504   2.10145   2.11722   2.11809   2.55878
  Beta virt. eigenvalues --    2.55878   2.74475   2.74532   3.02836   3.02921
  Beta virt. eigenvalues --    3.04980   3.39562   3.74831   3.75145   3.89999
  Beta virt. eigenvalues --    3.89999   3.93193   3.93194   3.93459   3.93460
  Beta virt. eigenvalues --    3.98681   3.99001   4.00247   4.00291   4.00372
  Beta virt. eigenvalues --    4.04126   4.06339   4.06339   4.12193   4.12199
  Beta virt. eigenvalues --    4.17949   4.18286   4.34724   4.35035   4.56423
  Beta virt. eigenvalues --    4.76690   6.62655   6.62655   6.72535   6.72535
  Beta virt. eigenvalues --    6.77680   6.77697   6.91873   7.75041   8.23247
  Beta virt. eigenvalues --    8.23259   8.49107   8.49107   8.59560   8.69070
  Beta virt. eigenvalues --    8.69087   9.27545  13.60089
          Condensed to atoms (all electrons):
               1          2
     1  B    4.712097   0.154950
     2  H    0.154950   0.978003
          Atomic-Atomic Spin Densities.
               1          2
     1  B    0.550675   0.100997
     2  H    0.100997  -0.752670
 Mulliken charges and spin densities:
               1          2
     1  B    0.132953   0.651673
     2  H   -0.132953  -0.651673
 Sum of Mulliken charges =  -0.00000  -0.00000
 Mulliken charges and spin densities with hydrogens summed into heavy atoms:
               1          2
     1  B   -0.000000  -0.000000
 Electronic spatial extent (au):  <R**2>=             31.7452
 Charge=              0.0000 electrons
 Dipole moment (field-independent basis, Debye):
    X=             -0.0000    Y=             -0.0429    Z=              0.7937  Tot=              0.7949
 Quadrupole moment (field-independent basis, Debye-Ang):
   XX=             -7.2362   YY=             -7.5742   ZZ=            -11.8774
   XY=             -0.0000   XZ=             -0.0000   YZ=              0.3739
 Traceless Quadrupole moment (field-independent basis, Debye-Ang):
   XX=              1.6597   YY=              1.3217   ZZ=             -2.9815
   XY=             -0.0000   XZ=             -0.0000   YZ=              0.3739
 Octapole moment (field-independent basis, Debye-Ang**2):
  XXX=             -0.0000  YYY=             -0.0769  ZZZ=              1.8866  XYY=             -0.0000
  XXY=             -0.0320  XXZ=              0.7936  XZZ=              0.0000  YZZ=              0.4489
  YYZ=              0.6078  XYZ=              0.0000
 Hexadecapole moment (field-independent basis, Debye-Ang**3):
 XXXX=            -10.3897 YYYY=            -11.3053 ZZZZ=            -55.7575 XXXY=             -0.0000
 XXXZ=             -0.0000 YYYX=             -0.0000 YYYZ=              0.5876 ZZZX=             -0.0000
 ZZZY=              0.6438 XXYY=             -3.6158 XXZZ=            -10.6414 YYZZ=            -10.8848
 XXYZ=              0.1932 YYXZ=             -0.0000 ZZXY=             -0.0000
 N-N= 1.322943027300D+00 E-N=-6.036043221298D+01  KE= 2.490599209409D+01
 Leave Link  601 at Sun May 22 18:34:40 2022, MaxMem=   104857600 cpu:               0.0 elap:               0.1
 (Enter /apps/software/g16/l9999.exe)
 1\1\GINC-CNODE10\SP\UCCSD-FC\Aug-CC-pVQZ\B1H1\LCZ\22-May-2022\0\\#p UH
 F/aug-cc-pVQZ guess=read CCSD=FC\\BH UCCSD at 2.0 Angstrom\\0,1\B,0,0.
 ,0.,0.\H,0,2.,0.,0.\\Version=ES64L-G16RevA.03\HF=-25.0557189\MP2=-25.1
 192045\MP3=-25.1344812\MP4D=-25.1416733\MP4DQ=-25.1400446\PUHF=-25.081
 5728\PMP2-0=-25.1437427\PMP3-0=-25.1567461\MP4SDQ=-25.1417035\CCSD=-25
 .1634234\S2=0.524695\S2-1=0.461812\S2A=0.177999\RMSD=1.511e-09\PG=C*V 
 [C*(H1B1)]\\@


 CHINESE FORTUNE COOKIE OF JAN 1 1967 SAY....
 ALL THINGS ARE DIFFICULT BEFORE THEY ARE EASY.
 WE LEARN SO LITTLE AND FORGET SO MUCH.
 YOU WILL OVERCOME OBSTACLES TO ACHIEVE SUCCESS.
 AH SO.
 Job cpu time:       0 days  0 hours  0 minutes 25.7 seconds.
 Elapsed time:       0 days  0 hours  0 minutes 25.7 seconds.
 File lengths (MBytes):  RWF=    377 Int=      0 D2E=      0 Chk=     67 Scr=      1
 Normal termination of Gaussian 16 at Sun May 22 18:34:40 2022.

Sender: Unischeduler System <lcz@mgt01>
Subject: Job 134215: <#!/bin/bash
#BSUB -J intel
#BSUB -o BH-2.0-UCCSD-G.out
#BSUB -n 8
#BSUB -q cqueue
#BSUB -R span[hosts=1]
export g16root=/apps/software
source /apps/software/g16/bsd/g16.profile
export GAUSS_SCRDIR=/scratch
/apps/software/g16/g16 < BH-2.0-UCCSD-G.inp > BH-2.0-UCCSD-G.out> Done

Job <#!/bin/bash
#BSUB -J intel
#BSUB -o BH-2.0-UCCSD-G.out
#BSUB -n 8
#BSUB -q cqueue
#BSUB -R span[hosts=1]
export g16root=/apps/software
source /apps/software/g16/bsd/g16.profile
export GAUSS_SCRDIR=/scratch
/apps/software/g16/g16 < BH-2.0-UCCSD-G.inp > BH-2.0-UCCSD-G.out> was submitted from host <mgt01> by user <lcz>.
Job was executed on host(s) <8*cnode10>, in queue <cqueue>, as user <lcz>.
</apps/users/lcz> was used as the home directory.
</apps/users/lcz/exe13/UCCSD> was used as the working directory.
Started at 2022-05-22 18:34:14
Results reported at 2022-05-22 18:34:40

Your job looked like:

------------------------------------------------------------
# User input
#!/bin/bash
#BSUB -J intel
#BSUB -o BH-2.0-UCCSD-G.out
#BSUB -n 8
#BSUB -q cqueue
#BSUB -R span[hosts=1]
export g16root=/apps/software
source /apps/software/g16/bsd/g16.profile
export GAUSS_SCRDIR=/scratch
/apps/software/g16/g16 < BH-2.0-UCCSD-G.inp > BH-2.0-UCCSD-G.out
------------------------------------------------------------

Successfully completed.

Resource usage summary:

    CPU time   :           18.68 sec.
    Max Memory :               479 MB
    Max Processes  :               5


The output (if any) follows:

