 Entering Gaussian System, Link 0=/apps/software/g16/g16
 Initial command:
 /apps/software/g16/l1.exe "/scratch/Gau-447615.inp" -scrdir="/scratch/"
 Entering Link 1 = /apps/software/g16/l1.exe PID=    447616.
  
 Copyright (c) 1988,1990,1992,1993,1995,1998,2003,2009,2016,
            Gaussian, Inc.  All Rights Reserved.
  
 This is part of the Gaussian(R) 16 program.  It is based on
 the Gaussian(R) 09 system (copyright 2009, Gaussian, Inc.),
 the Gaussian(R) 03 system (copyright 2003, Gaussian, Inc.),
 the Gaussian(R) 98 system (copyright 1998, Gaussian, Inc.),
 the Gaussian(R) 94 system (copyright 1995, Gaussian, Inc.),
 the Gaussian 92(TM) system (copyright 1992, Gaussian, Inc.),
 the Gaussian 90(TM) system (copyright 1990, Gaussian, Inc.),
 the Gaussian 88(TM) system (copyright 1988, Gaussian, Inc.),
 the Gaussian 86(TM) system (copyright 1986, Carnegie Mellon
 University), and the Gaussian 82(TM) system (copyright 1983,
 Carnegie Mellon University). Gaussian is a federally registered
 trademark of Gaussian, Inc.
  
 This software contains proprietary and confidential information,
 including trade secrets, belonging to Gaussian, Inc.
  
 This software is provided under written license and may be
 used, copied, transmitted, or stored only in accord with that
 written license.
  
 The following legend is applicable only to US Government
 contracts under FAR:
  
                    RESTRICTED RIGHTS LEGEND
  
 Use, reproduction and disclosure by the US Government is
 subject to restrictions as set forth in subparagraphs (a)
 and (c) of the Commercial Computer Software - Restricted
 Rights clause in FAR 52.227-19.
  
 Gaussian, Inc.
 340 Quinnipiac St., Bldg. 40, Wallingford CT 06492
  
  
 ---------------------------------------------------------------
 Warning -- This program may not be used in any manner that
 competes with the business of Gaussian, Inc. or will provide
 assistance to any competitor of Gaussian, Inc.  The licensee
 of this program is prohibited from giving any competitor of
 Gaussian, Inc. access to this program.  By using this program,
 the user acknowledges that Gaussian, Inc. is engaged in the
 business of creating and licensing software in the field of
 computational chemistry and represents and warrants to the
 licensee that it is not a competitor of Gaussian, Inc. and that
 it will not use this program in any manner prohibited above.
 ---------------------------------------------------------------
  

 Cite this work as:
 Gaussian 16, Revision A.03,
 M. J. Frisch, G. W. Trucks, H. B. Schlegel, G. E. Scuseria, 
 M. A. Robb, J. R. Cheeseman, G. Scalmani, V. Barone, 
 G. A. Petersson, H. Nakatsuji, X. Li, M. Caricato, A. V. Marenich, 
 J. Bloino, B. G. Janesko, R. Gomperts, B. Mennucci, H. P. Hratchian, 
 J. V. Ortiz, A. F. Izmaylov, J. L. Sonnenberg, D. Williams-Young, 
 F. Ding, F. Lipparini, F. Egidi, J. Goings, B. Peng, A. Petrone, 
 T. Henderson, D. Ranasinghe, V. G. Zakrzewski, J. Gao, N. Rega, 
 G. Zheng, W. Liang, M. Hada, M. Ehara, K. Toyota, R. Fukuda, 
 J. Hasegawa, M. Ishida, T. Nakajima, Y. Honda, O. Kitao, H. Nakai, 
 T. Vreven, K. Throssell, J. A. Montgomery, Jr., J. E. Peralta, 
 F. Ogliaro, M. J. Bearpark, J. J. Heyd, E. N. Brothers, K. N. Kudin, 
 V. N. Staroverov, T. A. Keith, R. Kobayashi, J. Normand, 
 K. Raghavachari, A. P. Rendell, J. C. Burant, S. S. Iyengar, 
 J. Tomasi, M. Cossi, J. M. Millam, M. Klene, C. Adamo, R. Cammi, 
 J. W. Ochterski, R. L. Martin, K. Morokuma, O. Farkas, 
 J. B. Foresman, and D. J. Fox, Gaussian, Inc., Wallingford CT, 2016.
 
 ******************************************
 Gaussian 16:  ES64L-G16RevA.03 25-Dec-2016
                22-May-2022 
 ******************************************
 %chk=BH-2.6-UHF-G.chk
 ---------------------------------------
 #p UHF/aug-cc-pVQZ guess=mix stable=opt
 ---------------------------------------
 1/38=1,172=1/1;
 2/12=2,17=6,18=5,40=1/2;
 3/5=16,6=2,7=10,11=2,25=1,30=1,116=2/1,2,3;
 4/13=-1/1;
 5/5=2,38=5/2;
 6/7=2,8=2,9=2,10=2,28=1/1;
 8/6=1,10=90,11=11/1;
 9/8=-3,42=1,46=1/14;
 5/5=2,8=3,17=40,38=5/8(-2);
 6/7=2,8=2,9=2,10=2,28=1/1;
 99/5=1,9=1/99;
 Leave Link    1 at Sun May 22 18:30:53 2022, MaxMem=           0 cpu:               0.0 elap:               0.0
 (Enter /apps/software/g16/l101.exe)
 ----------------------
 BH UHF at 2.6 Angstrom
 ----------------------
 Symbolic Z-matrix:
 Charge =  0 Multiplicity = 1
 B                     0.        0.        0. 
 H                     2.6       0.        0. 
 
 ITRead=  0  0
 MicOpt= -1 -1
 NAtoms=      2 NQM=        2 NQMF=       0 NMMI=      0 NMMIF=      0
                NMic=       0 NMicF=      0.
                    Isotopes and Nuclear Properties:
 (Nuclear quadrupole moments (NQMom) in fm**2, nuclear magnetic moments (NMagM)
  in nuclear magnetons)

  Atom         1           2
 IAtWgt=          11           1
 AtmWgt=  11.0093053   1.0078250
 NucSpn=           3           1
 AtZEff=  -0.0000000  -0.0000000
 NQMom=    4.0590000   0.0000000
 NMagM=    2.6886370   2.7928460
 AtZNuc=   5.0000000   1.0000000
 Leave Link  101 at Sun May 22 18:30:53 2022, MaxMem=   104857600 cpu:               0.1 elap:               0.1
 (Enter /apps/software/g16/l202.exe)
                          Input orientation:                          
 ---------------------------------------------------------------------
 Center     Atomic      Atomic             Coordinates (Angstroms)
 Number     Number       Type             X           Y           Z
 ---------------------------------------------------------------------
      1          5           0        0.000000    0.000000    0.000000
      2          1           0        2.600000    0.000000    0.000000
 ---------------------------------------------------------------------
 Stoichiometry    BH
 Framework group  C*V[C*(HB)]
 Deg. of freedom     1
 Full point group                 C*V     NOp   4
 Largest Abelian subgroup         C2V     NOp   4
 Largest concise Abelian subgroup C1      NOp   1
                         Standard orientation:                         
 ---------------------------------------------------------------------
 Center     Atomic      Atomic             Coordinates (Angstroms)
 Number     Number       Type             X           Y           Z
 ---------------------------------------------------------------------
      1          5           0        0.000000    0.000000    0.433333
      2          1           0        0.000000    0.000000   -2.166667
 ---------------------------------------------------------------------
 Rotational constants (GHZ):           0.0000000          80.9703873          80.9703873
 Leave Link  202 at Sun May 22 18:30:53 2022, MaxMem=   104857600 cpu:               0.0 elap:               0.0
 (Enter /apps/software/g16/l301.exe)
 Standard basis: Aug-CC-pVQZ (5D, 7F)
 Ernie: Thresh=  0.10000D-02 Tol=  0.10000D-05 Strict=F.
 Ernie:  4 primitive shells out of 54 were deleted.
 There are    68 symmetry adapted cartesian basis functions of A1  symmetry.
 There are    18 symmetry adapted cartesian basis functions of A2  symmetry.
 There are    37 symmetry adapted cartesian basis functions of B1  symmetry.
 There are    37 symmetry adapted cartesian basis functions of B2  symmetry.
 There are    50 symmetry adapted basis functions of A1  symmetry.
 There are    16 symmetry adapted basis functions of A2  symmetry.
 There are    30 symmetry adapted basis functions of B1  symmetry.
 There are    30 symmetry adapted basis functions of B2  symmetry.
   126 basis functions,   180 primitive gaussians,   160 cartesian basis functions
     3 alpha electrons        3 beta electrons
       nuclear repulsion energy         1.0176484825 Hartrees.
 IExCor=    0 DFT=F Ex=HF Corr=None ExCW=0 ScaHFX=  1.000000
 ScaDFX=  1.000000  1.000000  1.000000  1.000000 ScalE2=  1.000000  1.000000
 IRadAn=      5 IRanWt=     -1 IRanGd=            0 ICorTp=0 IEmpDi=  4
 NAtoms=    2 NActive=    2 NUniq=    2 SFac= 1.00D+00 NAtFMM=   60 NAOKFM=F Big=F
 Integral buffers will be    131072 words long.
 Raffenetti 2 integral format.
 Two-electron integral symmetry is turned on.
 Leave Link  301 at Sun May 22 18:30:53 2022, MaxMem=   104857600 cpu:               0.1 elap:               0.1
 (Enter /apps/software/g16/l302.exe)
 NPDir=0 NMtPBC=     1 NCelOv=     1 NCel=       1 NClECP=     1 NCelD=      1
         NCelK=      1 NCelE2=     1 NClLst=     1 CellRange=     0.0.
 One-electron integrals computed using PRISM.
 One-electron integral symmetry used in STVInt
 NBasis=   126 RedAO= T EigKep=  1.22D-03  NBF=    50    16    30    30
 NBsUse=   126 1.00D-06 EigRej= -1.00D+00 NBFU=    50    16    30    30
 Leave Link  302 at Sun May 22 18:30:54 2022, MaxMem=   104857600 cpu:               0.1 elap:               0.1
 (Enter /apps/software/g16/l303.exe)
 DipDrv:  MaxL=1.
 Leave Link  303 at Sun May 22 18:30:54 2022, MaxMem=   104857600 cpu:               0.0 elap:               0.0
 (Enter /apps/software/g16/l401.exe)
 ExpMin= 1.88D-02 ExpMax= 2.39D+04 ExpMxC= 2.30D+02 IAcc=3 IRadAn=         5 AccDes= 0.00D+00
 Harris functional with IExCor=  205 and IRadAn=       5 diagonalized for initial guess.
 HarFok:  IExCor=  205 AccDes= 0.00D+00 IRadAn=         5 IDoV= 1 UseB2=F ITyADJ=14
 ICtDFT=  3500011 ScaDFX=  1.000000  1.000000  1.000000  1.000000
 FoFCou: FMM=F IPFlag=           0 FMFlag=      100000 FMFlg1=           0
         NFxFlg=           0 DoJE=T BraDBF=F KetDBF=T FulRan=T
         wScrn=  0.000000 ICntrl=       500 IOpCl=  0 I1Cent=   200000004 NGrid=           0
         NMat0=    1 NMatS0=      1 NMatT0=    0 NMatD0=    1 NMtDS0=    0 NMtDT0=    0
 Petite list used in FoFCou.
 Harris En= -25.0080191745543    
 JPrj=0 DoOrth=F DoCkMO=T.
 Mixing orbitals, IMix= 1 IMixAn=  0 NRI=1 NE=    3 Coef=  7.07106781D-01  7.07106781D-01
 Mixing orbitals, IMix= 1 IMixAn=  0 NRI=1 NE=    3 Coef= -7.07106781D-01  7.07106781D-01
 Initial guess orbital symmetries:
 Alpha Orbitals:
       Occupied  (SG) (SG) (?A)
       Virtual   (?A) (?A) (SG) (SG) (PI) (PI) (SG) (SG) (PI) (PI)
                 (DLTA) (DLTA) (SG) (PI) (PI) (SG) (PI) (PI) (SG)
                 (SG) (PI) (PI) (DLTA) (DLTA) (DLTA) (DLTA) (PHI)
                 (PHI) (SG) (PI) (PI) (SG) (SG) (DLTA) (DLTA) (PI)
                 (PI) (SG) (PI) (PI) (SG) (PI) (PI) (SG) (DLTA)
                 (DLTA) (PI) (PI) (DLTA) (DLTA) (SG) (PHI) (PHI)
                 (SG) (?B) (?B) (PI) (PI) (PHI) (PHI) (DLTA) (DLTA)
                 (SG) (PI) (PI) (SG) (PHI) (PHI) (DLTA) (DLTA)
                 (SG) (SG) (PI) (PI) (DLTA) (DLTA) (PI) (PI) (PI)
                 (PI) (SG) (SG) (PI) (PI) (SG) (DLTA) (DLTA) (PI)
                 (PI) (?B) (?B) (PHI) (PHI) (SG) (DLTA) (DLTA)
                 (PHI) (PHI) (DLTA) (DLTA) (PI) (PI) (PI) (PI)
                 (SG) (SG) (PHI) (PHI) (DLTA) (DLTA) (PI) (PI)
                 (SG) (SG) (PI) (PI) (SG) (DLTA) (DLTA) (PI) (PI)
                 (SG) (SG)
 Beta  Orbitals:
       Occupied  (SG) (SG) (?A)
       Virtual   (?A) (?A) (SG) (SG) (PI) (PI) (SG) (SG) (PI) (PI)
                 (DLTA) (DLTA) (SG) (PI) (PI) (SG) (PI) (PI) (SG)
                 (SG) (PI) (PI) (DLTA) (DLTA) (DLTA) (DLTA) (PHI)
                 (PHI) (SG) (PI) (PI) (SG) (SG) (DLTA) (DLTA) (PI)
                 (PI) (SG) (PI) (PI) (SG) (PI) (PI) (SG) (DLTA)
                 (DLTA) (PI) (PI) (DLTA) (DLTA) (SG) (PHI) (PHI)
                 (SG) (?B) (?B) (PI) (PI) (PHI) (PHI) (DLTA) (DLTA)
                 (SG) (PI) (PI) (SG) (PHI) (PHI) (DLTA) (DLTA)
                 (SG) (SG) (PI) (PI) (DLTA) (DLTA) (PI) (PI) (PI)
                 (PI) (SG) (SG) (PI) (PI) (SG) (DLTA) (DLTA) (PI)
                 (PI) (?B) (?B) (PHI) (PHI) (SG) (DLTA) (DLTA)
                 (PHI) (PHI) (DLTA) (DLTA) (PI) (PI) (PI) (PI)
                 (SG) (SG) (PHI) (PHI) (DLTA) (DLTA) (PI) (PI)
                 (SG) (SG) (PI) (PI) (SG) (DLTA) (DLTA) (PI) (PI)
                 (SG) (SG)
 Initial guess <Sx>= 0.0000 <Sy>= 0.0000 <Sz>= 0.0000 <S**2>= 1.0000 S= 0.6180
 Leave Link  401 at Sun May 22 18:30:54 2022, MaxMem=   104857600 cpu:               0.2 elap:               0.2
 (Enter /apps/software/g16/l502.exe)
 Keep R1 and R2 ints in memory in symmetry-blocked form, NReq=40143665.
 FoFCou: FMM=F IPFlag=           0 FMFlag=           0 FMFlg1=           0
         NFxFlg=           0 DoJE=F BraDBF=F KetDBF=F FulRan=T
         wScrn=  0.000000 ICntrl=       600 IOpCl=  0 I1Cent=           0 NGrid=           0
         NMat0=    1 NMatS0=   8001 NMatT0=    0 NMatD0=    1 NMtDS0=    0 NMtDT0=    0
 Petite list used in FoFCou.
 UHF open shell SCF:
 Using DIIS extrapolation, IDIIS=  1040.
 NGot=   104857600 LenX=    88563632 LenY=    88537591
 Requested convergence on RMS density matrix=1.00D-08 within 128 cycles.
 Requested convergence on MAX density matrix=1.00D-06.
 Requested convergence on             energy=1.00D-06.
 No special actions if energy rises.
 An orbital has undefined symmetry, so N**3 symmetry is turned off.

 Cycle   1  Pass 1  IDiag  1:
 Density matrix breaks symmetry, PCut= 1.00D-07
 Density matrix has no symmetry -- integrals replicated.
 E= -24.8917930697099    
 DIIS: error= 3.15D-02 at cycle   1 NSaved=   1.
 NSaved= 1 IEnMin= 1 EnMin= -24.8917930697099     IErMin= 1 ErrMin= 3.15D-02
 ErrMax= 3.15D-02  0.00D+00 EMaxC= 1.00D-01 BMatC= 1.60D-01 BMatP= 1.60D-01
 IDIUse=3 WtCom= 6.85D-01 WtEn= 3.15D-01
 Coeff-Com:  0.100D+01
 Coeff-En:   0.100D+01
 Coeff:      0.100D+01
 Gap=     0.237 Goal=   None    Shift=    0.000
 Gap=     0.237 Goal=   None    Shift=    0.000
 GapD=    0.237 DampG=1.000 DampE=0.500 DampFc=0.5000 IDamp=-1.
 Damping current iteration by 5.00D-01
 RMSDP=1.31D-03 MaxDP=4.51D-02              OVMax= 2.76D-01

 Cycle   2  Pass 1  IDiag  1:
 Density matrix breaks symmetry, PCut= 1.00D-07
 Density matrix has no symmetry -- integrals replicated.
 E= -24.9190470886727     Delta-E=       -0.027254018963 Rises=F Damp=T
 DIIS: error= 1.74D-02 at cycle   2 NSaved=   2.
 NSaved= 2 IEnMin= 2 EnMin= -24.9190470886727     IErMin= 2 ErrMin= 1.74D-02
 ErrMax= 1.74D-02  0.00D+00 EMaxC= 1.00D-01 BMatC= 5.33D-02 BMatP= 1.60D-01
 IDIUse=3 WtCom= 8.26D-01 WtEn= 1.74D-01
 Coeff-Com: -0.980D+00 0.198D+01
 Coeff-En:   0.000D+00 0.100D+01
 Coeff:     -0.809D+00 0.181D+01
 Gap=     0.247 Goal=   None    Shift=    0.000
 Gap=     0.247 Goal=   None    Shift=    0.000
 RMSDP=1.23D-03 MaxDP=4.61D-02 DE=-2.73D-02 OVMax= 1.18D-01

 Cycle   3  Pass 1  IDiag  1:
 Density matrix breaks symmetry, PCut= 1.00D-07
 Density matrix has no symmetry -- integrals replicated.
 E= -24.9700869298159     Delta-E=       -0.051039841143 Rises=F Damp=F
 DIIS: error= 8.98D-03 at cycle   3 NSaved=   3.
 NSaved= 3 IEnMin= 3 EnMin= -24.9700869298159     IErMin= 3 ErrMin= 8.98D-03
 ErrMax= 8.98D-03  0.00D+00 EMaxC= 1.00D-01 BMatC= 4.21D-03 BMatP= 5.33D-02
 IDIUse=3 WtCom= 9.10D-01 WtEn= 8.98D-02
 Coeff-Com: -0.400D-01 0.308D-02 0.104D+01
 Coeff-En:   0.000D+00 0.000D+00 0.100D+01
 Coeff:     -0.364D-01 0.280D-02 0.103D+01
 Gap=     0.277 Goal=   None    Shift=    0.000
 Gap=     0.277 Goal=   None    Shift=    0.000
 RMSDP=4.44D-04 MaxDP=1.07D-02 DE=-5.10D-02 OVMax= 8.94D-02

 Cycle   4  Pass 1  IDiag  1:
 Density matrix breaks symmetry, PCut= 1.00D-07
 Density matrix has no symmetry -- integrals replicated.
 E= -24.9791385289083     Delta-E=       -0.009051599092 Rises=F Damp=F
 DIIS: error= 4.98D-03 at cycle   4 NSaved=   4.
 NSaved= 4 IEnMin= 4 EnMin= -24.9791385289083     IErMin= 4 ErrMin= 4.98D-03
 ErrMax= 4.98D-03  0.00D+00 EMaxC= 1.00D-01 BMatC= 1.72D-03 BMatP= 4.21D-03
 IDIUse=3 WtCom= 9.50D-01 WtEn= 4.98D-02
 Coeff-Com:  0.308D-01-0.484D-01-0.115D+01 0.216D+01
 Coeff-En:   0.000D+00 0.000D+00 0.000D+00 0.100D+01
 Coeff:      0.292D-01-0.460D-01-0.109D+01 0.211D+01
 Gap=     0.288 Goal=   None    Shift=    0.000
 Gap=     0.288 Goal=   None    Shift=    0.000
 RMSDP=5.56D-04 MaxDP=1.43D-02 DE=-9.05D-03 OVMax= 1.20D-01

 Cycle   5  Pass 1  IDiag  1:
 Density matrix breaks symmetry, PCut= 1.00D-07
 Density matrix has no symmetry -- integrals replicated.
 E= -24.9853940154301     Delta-E=       -0.006255486522 Rises=F Damp=F
 DIIS: error= 3.17D-03 at cycle   5 NSaved=   5.
 NSaved= 5 IEnMin= 5 EnMin= -24.9853940154301     IErMin= 5 ErrMin= 3.17D-03
 ErrMax= 3.17D-03  0.00D+00 EMaxC= 1.00D-01 BMatC= 4.42D-04 BMatP= 1.72D-03
 IDIUse=3 WtCom= 9.68D-01 WtEn= 3.17D-02
 Coeff-Com: -0.154D+00 0.287D+00 0.792D-01-0.481D+00 0.127D+01
 Coeff-En:   0.000D+00 0.000D+00 0.000D+00 0.000D+00 0.100D+01
 Coeff:     -0.149D+00 0.278D+00 0.767D-01-0.466D+00 0.126D+01
 Gap=     0.293 Goal=   None    Shift=    0.000
 Gap=     0.293 Goal=   None    Shift=    0.000
 RMSDP=1.56D-04 MaxDP=4.03D-03 DE=-6.26D-03 OVMax= 3.17D-02

 Cycle   6  Pass 1  IDiag  1:
 Density matrix breaks symmetry, PCut= 1.00D-07
 Density matrix has no symmetry -- integrals replicated.
 E= -24.9862869797620     Delta-E=       -0.000892964332 Rises=F Damp=F
 DIIS: error= 1.97D-03 at cycle   6 NSaved=   6.
 NSaved= 6 IEnMin= 6 EnMin= -24.9862869797620     IErMin= 6 ErrMin= 1.97D-03
 ErrMax= 1.97D-03  0.00D+00 EMaxC= 1.00D-01 BMatC= 1.58D-04 BMatP= 4.42D-04
 IDIUse=3 WtCom= 9.80D-01 WtEn= 1.97D-02
 Coeff-Com:  0.746D-01-0.151D+00 0.326D+00-0.658D+00-0.483D+00 0.189D+01
 Coeff-En:   0.000D+00 0.000D+00 0.000D+00 0.000D+00 0.000D+00 0.100D+01
 Coeff:      0.731D-01-0.148D+00 0.319D+00-0.645D+00-0.473D+00 0.187D+01
 Gap=     0.297 Goal=   None    Shift=    0.000
 Gap=     0.297 Goal=   None    Shift=    0.000
 RMSDP=2.31D-04 MaxDP=6.75D-03 DE=-8.93D-04 OVMax= 5.70D-02

 Cycle   7  Pass 1  IDiag  1:
 Density matrix breaks symmetry, PCut= 1.00D-07
 Density matrix has no symmetry -- integrals replicated.
 E= -24.9870250763119     Delta-E=       -0.000738096550 Rises=F Damp=F
 DIIS: error= 6.49D-04 at cycle   7 NSaved=   7.
 NSaved= 7 IEnMin= 7 EnMin= -24.9870250763119     IErMin= 7 ErrMin= 6.49D-04
 ErrMax= 6.49D-04  0.00D+00 EMaxC= 1.00D-01 BMatC= 3.68D-05 BMatP= 1.58D-04
 IDIUse=3 WtCom= 9.94D-01 WtEn= 6.49D-03
 Coeff-Com:  0.178D-01-0.330D-01-0.220D+00 0.602D+00-0.394D+00-0.541D+00
 Coeff-Com:  0.157D+01
 Coeff-En:   0.000D+00 0.000D+00 0.000D+00 0.000D+00 0.000D+00 0.000D+00
 Coeff-En:   0.100D+01
 Coeff:      0.177D-01-0.328D-01-0.218D+00 0.598D+00-0.391D+00-0.537D+00
 Coeff:      0.156D+01
 Gap=     0.296 Goal=   None    Shift=    0.000
 Gap=     0.296 Goal=   None    Shift=    0.000
 RMSDP=7.01D-05 MaxDP=1.74D-03 DE=-7.38D-04 OVMax= 1.48D-02

 Cycle   8  Pass 1  IDiag  1:
 Density matrix breaks symmetry, PCut= 1.00D-07
 Density matrix has no symmetry -- integrals replicated.
 E= -24.9871249043860     Delta-E=       -0.000099828074 Rises=F Damp=F
 DIIS: error= 4.65D-04 at cycle   8 NSaved=   8.
 NSaved= 8 IEnMin= 8 EnMin= -24.9871249043860     IErMin= 8 ErrMin= 4.65D-04
 ErrMax= 4.65D-04  0.00D+00 EMaxC= 1.00D-01 BMatC= 1.05D-05 BMatP= 3.68D-05
 IDIUse=3 WtCom= 9.95D-01 WtEn= 4.65D-03
 Coeff-Com: -0.100D-01 0.185D-01 0.893D-01-0.263D+00 0.271D+00 0.126D+00
 Coeff-Com: -0.101D+01 0.177D+01
 Coeff-En:   0.000D+00 0.000D+00 0.000D+00 0.000D+00 0.000D+00 0.000D+00
 Coeff-En:   0.000D+00 0.100D+01
 Coeff:     -0.997D-02 0.184D-01 0.889D-01-0.262D+00 0.269D+00 0.126D+00
 Coeff:     -0.100D+01 0.177D+01
 Gap=     0.295 Goal=   None    Shift=    0.000
 Gap=     0.295 Goal=   None    Shift=    0.000
 RMSDP=3.95D-05 MaxDP=1.35D-03 DE=-9.98D-05 OVMax= 5.90D-03

 Cycle   9  Pass 1  IDiag  1:
 Density matrix breaks symmetry, PCut= 1.00D-07
 Density matrix has no symmetry -- integrals replicated.
 E= -24.9871595479271     Delta-E=       -0.000034643541 Rises=F Damp=F
 DIIS: error= 3.95D-04 at cycle   9 NSaved=   9.
 NSaved= 9 IEnMin= 9 EnMin= -24.9871595479271     IErMin= 9 ErrMin= 3.95D-04
 ErrMax= 3.95D-04  0.00D+00 EMaxC= 1.00D-01 BMatC= 6.98D-06 BMatP= 1.05D-05
 IDIUse=3 WtCom= 9.96D-01 WtEn= 3.95D-03
 Coeff-Com:  0.177D-01-0.346D-01-0.946D-01 0.299D+00-0.514D+00 0.150D+00
 Coeff-Com:  0.147D+01-0.416D+01 0.386D+01
 Coeff-En:   0.000D+00 0.000D+00 0.000D+00 0.000D+00 0.000D+00 0.000D+00
 Coeff-En:   0.000D+00 0.000D+00 0.100D+01
 Coeff:      0.177D-01-0.344D-01-0.943D-01 0.297D+00-0.512D+00 0.149D+00
 Coeff:      0.147D+01-0.414D+01 0.385D+01
 Gap=     0.295 Goal=   None    Shift=    0.000
 Gap=     0.295 Goal=   None    Shift=    0.000
 RMSDP=6.93D-05 MaxDP=2.89D-03 DE=-3.46D-05 OVMax= 9.16D-03

 Cycle  10  Pass 1  IDiag  1:
 Density matrix breaks symmetry, PCut= 1.00D-07
 Density matrix has no symmetry -- integrals replicated.
 E= -24.9872055481219     Delta-E=       -0.000046000195 Rises=F Damp=F
 DIIS: error= 2.48D-04 at cycle  10 NSaved=  10.
 NSaved=10 IEnMin=10 EnMin= -24.9872055481219     IErMin=10 ErrMin= 2.48D-04
 ErrMax= 2.48D-04  0.00D+00 EMaxC= 1.00D-01 BMatC= 2.94D-06 BMatP= 6.98D-06
 IDIUse=3 WtCom= 9.98D-01 WtEn= 2.48D-03
 Coeff-Com: -0.205D-02 0.433D-02 0.352D-01-0.117D+00 0.218D+00-0.193D-01
 Coeff-Com: -0.940D+00 0.275D+01-0.397D+01 0.304D+01
 Coeff-En:   0.000D+00 0.000D+00 0.000D+00 0.000D+00 0.000D+00 0.000D+00
 Coeff-En:   0.000D+00 0.000D+00 0.000D+00 0.100D+01
 Coeff:     -0.204D-02 0.432D-02 0.351D-01-0.117D+00 0.217D+00-0.193D-01
 Coeff:     -0.938D+00 0.275D+01-0.396D+01 0.303D+01
 Gap=     0.294 Goal=   None    Shift=    0.000
 Gap=     0.294 Goal=   None    Shift=    0.000
 RMSDP=9.93D-05 MaxDP=4.16D-03 DE=-4.60D-05 OVMax= 1.32D-02

 Cycle  11  Pass 1  IDiag  1:
 Density matrix breaks symmetry, PCut= 1.00D-07
 Density matrix has no symmetry -- integrals replicated.
 E= -24.9872346054389     Delta-E=       -0.000029057317 Rises=F Damp=F
 DIIS: error= 4.89D-05 at cycle  11 NSaved=  11.
 NSaved=11 IEnMin=11 EnMin= -24.9872346054389     IErMin=11 ErrMin= 4.89D-05
 ErrMax= 4.89D-05  0.00D+00 EMaxC= 1.00D-01 BMatC= 1.42D-07 BMatP= 2.94D-06
 IDIUse=1 WtCom= 1.00D+00 WtEn= 0.00D+00
 Coeff-Com:  0.167D-02-0.324D-02-0.908D-02 0.334D-01-0.607D-01 0.103D-01
 Coeff-Com:  0.256D+00-0.723D+00 0.109D+01-0.116D+01 0.156D+01
 Coeff:      0.167D-02-0.324D-02-0.908D-02 0.334D-01-0.607D-01 0.103D-01
 Coeff:      0.256D+00-0.723D+00 0.109D+01-0.116D+01 0.156D+01
 Gap=     0.293 Goal=   None    Shift=    0.000
 Gap=     0.293 Goal=   None    Shift=    0.000
 RMSDP=2.50D-05 MaxDP=1.09D-03 DE=-2.91D-05 OVMax= 3.45D-03

 Cycle  12  Pass 1  IDiag  1:
 Density matrix breaks symmetry, PCut= 1.00D-07
 Density matrix has no symmetry -- integrals replicated.
 E= -24.9872357275419     Delta-E=       -0.000001122103 Rises=F Damp=F
 DIIS: error= 5.41D-06 at cycle  12 NSaved=  12.
 NSaved=12 IEnMin=12 EnMin= -24.9872357275419     IErMin=12 ErrMin= 5.41D-06
 ErrMax= 5.41D-06  0.00D+00 EMaxC= 1.00D-01 BMatC= 3.78D-09 BMatP= 1.42D-07
 IDIUse=1 WtCom= 1.00D+00 WtEn= 0.00D+00
 Coeff-Com: -0.401D-03 0.751D-03 0.129D-02-0.502D-02 0.127D-01-0.671D-02
 Coeff-Com: -0.408D-01 0.126D+00-0.211D+00 0.277D+00-0.456D+00 0.130D+01
 Coeff:     -0.401D-03 0.751D-03 0.129D-02-0.502D-02 0.127D-01-0.671D-02
 Coeff:     -0.408D-01 0.126D+00-0.211D+00 0.277D+00-0.456D+00 0.130D+01
 Gap=     0.293 Goal=   None    Shift=    0.000
 Gap=     0.293 Goal=   None    Shift=    0.000
 RMSDP=1.26D-06 MaxDP=4.47D-05 DE=-1.12D-06 OVMax= 1.97D-04

 Cycle  13  Pass 1  IDiag  1:
 Density matrix breaks symmetry, PCut= 1.00D-07
 Density matrix has no symmetry -- integrals replicated.
 E= -24.9872357340763     Delta-E=       -0.000000006534 Rises=F Damp=F
 DIIS: error= 1.47D-06 at cycle  13 NSaved=  13.
 NSaved=13 IEnMin=13 EnMin= -24.9872357340763     IErMin=13 ErrMin= 1.47D-06
 ErrMax= 1.47D-06  0.00D+00 EMaxC= 1.00D-01 BMatC= 2.00D-10 BMatP= 3.78D-09
 IDIUse=1 WtCom= 1.00D+00 WtEn= 0.00D+00
 Coeff-Com:  0.108D-03-0.198D-03-0.460D-03 0.154D-02-0.378D-02 0.199D-02
 Coeff-Com:  0.111D-01-0.304D-01 0.567D-01-0.889D-01 0.160D+00-0.681D+00
 Coeff-Com:  0.157D+01
 Coeff:      0.108D-03-0.198D-03-0.460D-03 0.154D-02-0.378D-02 0.199D-02
 Coeff:      0.111D-01-0.304D-01 0.567D-01-0.889D-01 0.160D+00-0.681D+00
 Coeff:      0.157D+01
 Gap=     0.293 Goal=   None    Shift=    0.000
 Gap=     0.293 Goal=   None    Shift=    0.000
 RMSDP=2.78D-07 MaxDP=1.09D-05 DE=-6.53D-09 OVMax= 3.77D-05

 Cycle  14  Pass 1  IDiag  1:
 Density matrix breaks symmetry, PCut= 1.00D-07
 Density matrix has no symmetry -- integrals replicated.
 E= -24.9872357343457     Delta-E=       -0.000000000269 Rises=F Damp=F
 DIIS: error= 4.72D-07 at cycle  14 NSaved=  14.
 NSaved=14 IEnMin=14 EnMin= -24.9872357343457     IErMin=14 ErrMin= 4.72D-07
 ErrMax= 4.72D-07  0.00D+00 EMaxC= 1.00D-01 BMatC= 2.23D-11 BMatP= 2.00D-10
 IDIUse=1 WtCom= 1.00D+00 WtEn= 0.00D+00
 Coeff-Com: -0.161D-04 0.256D-04 0.874D-04-0.350D-03 0.706D-03-0.535D-04
 Coeff-Com: -0.331D-02 0.653D-02-0.131D-01 0.229D-01-0.437D-01 0.196D+00
 Coeff-Com: -0.638D+00 0.147D+01
 Coeff:     -0.161D-04 0.256D-04 0.874D-04-0.350D-03 0.706D-03-0.535D-04
 Coeff:     -0.331D-02 0.653D-02-0.131D-01 0.229D-01-0.437D-01 0.196D+00
 Coeff:     -0.638D+00 0.147D+01
 Gap=     0.293 Goal=   None    Shift=    0.000
 Gap=     0.293 Goal=   None    Shift=    0.000
 RMSDP=1.18D-07 MaxDP=3.78D-06 DE=-2.69D-10 OVMax= 1.93D-05

 Cycle  15  Pass 1  IDiag  1:
 Density matrix breaks symmetry, PCut= 1.00D-07
 Density matrix has no symmetry -- integrals replicated.
 E= -24.9872357344184     Delta-E=       -0.000000000073 Rises=F Damp=F
 DIIS: error= 1.37D-07 at cycle  15 NSaved=  15.
 NSaved=15 IEnMin=15 EnMin= -24.9872357344184     IErMin=15 ErrMin= 1.37D-07
 ErrMax= 1.37D-07  0.00D+00 EMaxC= 1.00D-01 BMatC= 2.04D-12 BMatP= 2.23D-11
 IDIUse=1 WtCom= 1.00D+00 WtEn= 0.00D+00
 Coeff-Com:  0.209D-05-0.365D-05 0.106D-04-0.294D-04-0.415D-04 0.111D-03
 Coeff-Com: -0.111D-03 0.352D-03-0.247D-03-0.619D-03 0.147D-02-0.140D-01
 Coeff-Com:  0.614D-01-0.263D+00 0.121D+01
 Coeff:      0.209D-05-0.365D-05 0.106D-04-0.294D-04-0.415D-04 0.111D-03
 Coeff:     -0.111D-03 0.352D-03-0.247D-03-0.619D-03 0.147D-02-0.140D-01
 Coeff:      0.614D-01-0.263D+00 0.121D+01
 Gap=     0.293 Goal=   None    Shift=    0.000
 Gap=     0.293 Goal=   None    Shift=    0.000
 RMSDP=4.79D-08 MaxDP=1.82D-06 DE=-7.26D-11 OVMax= 7.07D-06

 Cycle  16  Pass 1  IDiag  1:
 Density matrix breaks symmetry, PCut= 1.00D-07
 Density matrix has no symmetry -- integrals replicated.
 E= -24.9872357344260     Delta-E=       -0.000000000008 Rises=F Damp=F
 DIIS: error= 2.73D-08 at cycle  16 NSaved=  16.
 NSaved=16 IEnMin=16 EnMin= -24.9872357344260     IErMin=16 ErrMin= 2.73D-08
 ErrMax= 2.73D-08  0.00D+00 EMaxC= 1.00D-01 BMatC= 9.05D-14 BMatP= 2.04D-12
 IDIUse=1 WtCom= 1.00D+00 WtEn= 0.00D+00
 Coeff-Com:  0.235D-06-0.504D-06 0.182D-06-0.138D-05 0.581D-05 0.223D-05
 Coeff-Com: -0.299D-04-0.403D-04 0.708D-04 0.336D-04-0.741D-04 0.697D-03
 Coeff-Com: -0.608D-02 0.470D-01-0.421D+00 0.138D+01
 Coeff:      0.235D-06-0.504D-06 0.182D-06-0.138D-05 0.581D-05 0.223D-05
 Coeff:     -0.299D-04-0.403D-04 0.708D-04 0.336D-04-0.741D-04 0.697D-03
 Coeff:     -0.608D-02 0.470D-01-0.421D+00 0.138D+01
 Gap=     0.293 Goal=   None    Shift=    0.000
 Gap=     0.293 Goal=   None    Shift=    0.000
 RMSDP=1.18D-08 MaxDP=4.47D-07 DE=-7.61D-12 OVMax= 1.75D-06

 Cycle  17  Pass 1  IDiag  1:
 Density matrix breaks symmetry, PCut= 1.00D-07
 Density matrix has no symmetry -- integrals replicated.
 E= -24.9872357344263     Delta-E=       -0.000000000000 Rises=F Damp=F
 DIIS: error= 2.10D-09 at cycle  17 NSaved=  17.
 NSaved=17 IEnMin=17 EnMin= -24.9872357344263     IErMin=17 ErrMin= 2.10D-09
 ErrMax= 2.10D-09  0.00D+00 EMaxC= 1.00D-01 BMatC= 6.65D-16 BMatP= 9.05D-14
 IDIUse=1 WtCom= 1.00D+00 WtEn= 0.00D+00
 Large coefficients: NSaved= 17 BigCof=    0.00 CofMax=   10.00 Det=-9.79D-16
 Inversion failed.  Reducing to 16 matrices.
 Large coefficients: NSaved= 16 BigCof=    0.00 CofMax=   10.00 Det=-9.84D-16
 Inversion failed.  Reducing to 15 matrices.
 Coeff-Com:  0.445D-06-0.930D-06 0.106D-05-0.315D-06-0.291D-05 0.260D-04
 Coeff-Com: -0.605D-04 0.806D-04-0.153D-03 0.617D-03-0.168D-02 0.115D-02
 Coeff-Com:  0.762D-01-0.407D+00 0.133D+01
 Coeff:      0.445D-06-0.930D-06 0.106D-05-0.315D-06-0.291D-05 0.260D-04
 Coeff:     -0.605D-04 0.806D-04-0.153D-03 0.617D-03-0.168D-02 0.115D-02
 Coeff:      0.762D-01-0.407D+00 0.133D+01
 Gap=     0.293 Goal=   None    Shift=    0.000
 Gap=     0.293 Goal=   None    Shift=    0.000
 RMSDP=7.70D-10 MaxDP=3.19D-08 DE=-3.30D-13 OVMax= 1.08D-07

 Density matrix breaks symmetry, PCut= 1.00D-07
 Density matrix has no symmetry -- integrals replicated.
 SCF Done:  E(UHF) =  -24.9872357344     A.U. after   17 cycles
            NFock= 17  Conv=0.77D-09     -V/T= 2.0094
 <Sx>= 0.0000 <Sy>= 0.0000 <Sz>= 0.0000 <S**2>= 0.1735 S= 0.1508
 <L.S>=  0.00000000000    
 KE= 2.475524250881D+01 PE=-5.936252608343D+01 EE= 8.602399357661D+00
 Annihilation of the first spin contaminant:
 S**2 before annihilation     0.1735,   after     0.0020
 Leave Link  502 at Sun May 22 18:30:58 2022, MaxMem=   104857600 cpu:               3.8 elap:               3.8
 (Enter /apps/software/g16/l601.exe)
 Copying SCF densities to generalized density rwf, IOpCl= 1 IROHF=0.
 SCF density gives NOpUse=  1 NOpAll=  4.
 Marking SCF density as not fully symmetric.

 **********************************************************************

            Population analysis using the SCF density.

 **********************************************************************

 Orbital symmetries:
 Alpha Orbitals:
       Occupied  (SG) (?A) (?A)
       Virtual   (?A) (?A) (?A) (?A) (?A) (?A) (?A) (?A) (?B) (?B)
                 (?B) (?B) (SG) (?C) (?C) (?C) (?C) (?C) (?C) (?C)
                 (?D) (?D) (?D) (?D) (?D) (?D) (?D) (?D) (SG) (PI)
                 (PI) (SG) (SG) (DLTA) (DLTA) (PI) (PI) (SG) (?E)
                 (?E) (?E) (PI) (PI) (SG) (?F) (?F) (?F) (?F) (?F)
                 (?F) (?F) (?F) (?F) (?F) (?F) (?F) (?F) (?F) (?F)
                 (?F) (?F) (?F) (SG) (PI) (PI) (PHI) (PHI) (SG)
                 (DLTA) (DLTA) (SG) (SG) (PI) (PI) (DLTA) (DLTA)
                 (PI) (PI) (PI) (PI) (SG) (SG) (PI) (PI) (?G) (?G)
                 (?H) (?H) (?H) (PHI) (PHI) (?H) (?H) (?I) (?I)
                 (?I) (?J) (?J) (?J) (?J) (?J) (?J) (?K) (?K) (?K)
                 (SG) (PHI) (PHI) (DLTA) (DLTA) (PI) (PI) (SG)
                 (SG) (PI) (PI) (SG) (DLTA) (DLTA) (PI) (PI) (SG)
                 (SG)
 Beta  Orbitals:
       Occupied  (SG) (?A) (?A)
       Virtual   (?A) (?A) (?A) (?A) (?A) (?A) (?A) (?A) (?B) (?B)
                 (?B) (?B) (SG) (?C) (?C) (?C) (?C) (?C) (?C) (?C)
                 (?D) (?D) (?D) (?D) (?D) (?D) (?D) (?D) (SG) (PI)
                 (PI) (SG) (SG) (DLTA) (DLTA) (PI) (PI) (SG) (?E)
                 (?E) (?E) (PI) (PI) (SG) (?F) (?F) (?F) (?F) (?F)
                 (?F) (?F) (?F) (?F) (?F) (?F) (?F) (?F) (?F) (?F)
                 (?F) (?F) (?F) (SG) (PI) (PI) (PHI) (PHI) (SG)
                 (DLTA) (DLTA) (SG) (SG) (PI) (PI) (DLTA) (DLTA)
                 (PI) (PI) (PI) (PI) (SG) (SG) (PI) (PI) (?G) (?G)
                 (?H) (?H) (?H) (PHI) (PHI) (?H) (?H) (?I) (?I)
                 (?I) (?J) (?J) (?J) (?J) (?J) (?J) (?K) (?K) (?K)
                 (SG) (PHI) (PHI) (DLTA) (DLTA) (PI) (PI) (SG)
                 (SG) (PI) (PI) (SG) (DLTA) (DLTA) (PI) (PI) (SG)
                 (SG)
 Unable to determine electronic state:  an orbital has unidentified symmetry.
 Alpha  occ. eigenvalues --   -7.82606  -0.57559  -0.29958
 Alpha virt. eigenvalues --   -0.00619  -0.00577   0.00882   0.04240   0.05662
 Alpha virt. eigenvalues --    0.05857   0.06922   0.08667   0.13624   0.13626
 Alpha virt. eigenvalues --    0.13893   0.13939   0.17500   0.25948   0.26104
 Alpha virt. eigenvalues --    0.27411   0.29069   0.29088   0.30539   0.34647
 Alpha virt. eigenvalues --    0.44350   0.44350   0.45008   0.45008   0.46518
 Alpha virt. eigenvalues --    0.46587   0.47079   0.47115   0.48583   0.52122
 Alpha virt. eigenvalues --    0.52212   0.56777   0.61884   0.72753   0.72753
 Alpha virt. eigenvalues --    0.86477   0.86497   0.87961   0.89687   0.89717
 Alpha virt. eigenvalues --    0.91961   1.00081   1.00172   1.24787   1.33456
 Alpha virt. eigenvalues --    1.33456   1.33675   1.33675   1.34423   1.34428
 Alpha virt. eigenvalues --    1.34856   1.34889   1.35557   1.35669   1.37078
 Alpha virt. eigenvalues --    1.38933   1.39365   1.39366   1.40733   1.40933
 Alpha virt. eigenvalues --    1.41936   1.41954   1.51858   1.58972   1.59142
 Alpha virt. eigenvalues --    1.64712   1.64712   1.67111   1.83291   1.83291
 Alpha virt. eigenvalues --    1.91415   2.08641   2.10346   2.10430   2.57083
 Alpha virt. eigenvalues --    2.57083   2.68004   2.68015   2.77233   2.77256
 Alpha virt. eigenvalues --    2.84377   3.08535   3.65577   3.65809   3.85399
 Alpha virt. eigenvalues --    3.85399   3.86621   3.86628   3.86876   3.87059
 Alpha virt. eigenvalues --    3.87059   3.88688   3.88955   3.92677   3.92695
 Alpha virt. eigenvalues --    3.93795   4.00805   4.00805   4.02123   4.02399
 Alpha virt. eigenvalues --    4.02918   4.02960   4.13998   4.14249   4.20233
 Alpha virt. eigenvalues --    4.38039   6.64341   6.64341   6.69191   6.69191
 Alpha virt. eigenvalues --    6.79611   6.79618   6.81332   7.65996   8.09538
 Alpha virt. eigenvalues --    8.09542   8.46473   8.49954   8.49954   8.57595
 Alpha virt. eigenvalues --    8.57599   8.71517  13.12975
  Beta  occ. eigenvalues --   -7.82606  -0.57559  -0.29958
  Beta virt. eigenvalues --   -0.00619  -0.00577   0.00882   0.04240   0.05662
  Beta virt. eigenvalues --    0.05857   0.06922   0.08667   0.13624   0.13626
  Beta virt. eigenvalues --    0.13893   0.13939   0.17500   0.25948   0.26104
  Beta virt. eigenvalues --    0.27411   0.29069   0.29088   0.30539   0.34647
  Beta virt. eigenvalues --    0.44350   0.44350   0.45008   0.45008   0.46518
  Beta virt. eigenvalues --    0.46587   0.47079   0.47115   0.48583   0.52122
  Beta virt. eigenvalues --    0.52212   0.56777   0.61884   0.72753   0.72753
  Beta virt. eigenvalues --    0.86477   0.86497   0.87961   0.89687   0.89717
  Beta virt. eigenvalues --    0.91961   1.00081   1.00172   1.24787   1.33456
  Beta virt. eigenvalues --    1.33456   1.33675   1.33675   1.34423   1.34428
  Beta virt. eigenvalues --    1.34856   1.34889   1.35557   1.35669   1.37078
  Beta virt. eigenvalues --    1.38933   1.39365   1.39366   1.40733   1.40933
  Beta virt. eigenvalues --    1.41936   1.41954   1.51858   1.58972   1.59142
  Beta virt. eigenvalues --    1.64712   1.64712   1.67111   1.83291   1.83291
  Beta virt. eigenvalues --    1.91415   2.08641   2.10346   2.10430   2.57083
  Beta virt. eigenvalues --    2.57083   2.68004   2.68015   2.77233   2.77256
  Beta virt. eigenvalues --    2.84377   3.08535   3.65577   3.65809   3.85399
  Beta virt. eigenvalues --    3.85399   3.86621   3.86628   3.86876   3.87059
  Beta virt. eigenvalues --    3.87059   3.88688   3.88955   3.92677   3.92695
  Beta virt. eigenvalues --    3.93795   4.00805   4.00805   4.02123   4.02399
  Beta virt. eigenvalues --    4.02918   4.02960   4.13998   4.14249   4.20233
  Beta virt. eigenvalues --    4.38039   6.64341   6.64341   6.69191   6.69191
  Beta virt. eigenvalues --    6.79611   6.79618   6.81332   7.65996   8.09538
  Beta virt. eigenvalues --    8.09542   8.46473   8.49954   8.49954   8.57595
  Beta virt. eigenvalues --    8.57599   8.71517  13.12975
          Condensed to atoms (all electrons):
               1          2
     1  B    4.512156   0.253405
     2  H    0.253405   0.981033
          Atomic-Atomic Spin Densities.
               1          2
     1  B    0.000000   0.000000
     2  H    0.000000   0.000000
 Mulliken charges and spin densities:
               1          2
     1  B    0.234438   0.000000
     2  H   -0.234438   0.000000
 Sum of Mulliken charges =  -0.00000   0.00000
 Mulliken charges and spin densities with hydrogens summed into heavy atoms:
               1          2
     1  B   -0.000000   0.000000
 Electronic spatial extent (au):  <R**2>=             44.0494
 Charge=             -0.0000 electrons
 Dipole moment (field-independent basis, Debye):
    X=              0.0000    Y=              0.0000    Z=              3.7022  Tot=              3.7022
 Quadrupole moment (field-independent basis, Debye-Ang):
   XX=             -8.1266   YY=             -8.4264   ZZ=            -15.6370
   XY=              0.0000   XZ=              0.0000   YZ=              0.0000
 Traceless Quadrupole moment (field-independent basis, Debye-Ang):
   XX=              2.6034   YY=              2.3036   ZZ=             -4.9070
   XY=              0.0000   XZ=              0.0000   YZ=              0.0000
 Octapole moment (field-independent basis, Debye-Ang**2):
  XXX=             -0.0000  YYY=              0.0000  ZZZ=             16.8862  XYY=             -0.0000
  XXY=              0.0000  XXZ=              3.9414  XZZ=              0.0000  YZZ=              0.0000
  YYZ=              3.7601  XYZ=              0.0000
 Hexadecapole moment (field-independent basis, Debye-Ang**3):
 XXXX=            -13.8633 YYYY=            -14.6751 ZZZZ=           -111.4386 XXXY=              0.0000
 XXXZ=             -0.0000 YYYX=              0.0000 YYYZ=              0.0000 ZZZX=             -0.0000
 ZZZY=              0.0000 XXYY=             -4.7565 XXZZ=            -19.1444 YYZZ=            -19.3827
 XXYZ=              0.0000 YYXZ=              0.0000 ZZXY=              0.0000
 N-N= 1.017648482538D+00 E-N=-5.936252604551D+01  KE= 2.475524250881D+01
 Symmetry A1   KE= 2.467928067495D+01
 Symmetry A2   KE= 1.132500060673D-29
 Symmetry B1   KE= 9.271589831952D-30
 Symmetry B2   KE= 7.596183385702D-02
 Symmetry A1   SP= 0.000000000000D+00
 Symmetry A2   SP= 0.000000000000D+00
 Symmetry B1   SP= 0.000000000000D+00
 Symmetry B2   SP= 0.000000000000D+00
                          Isotropic Fermi Contact Couplings
        Atom                 a.u.       MegaHertz       Gauss      10(-4) cm-1
     1  B(11)              0.00000       0.00000       0.00000       0.00000
     2  H(1)               0.00000       0.00000       0.00000       0.00000
 --------------------------------------------------------
       Center         ----  Spin Dipole Couplings  ----
                      3XX-RR        3YY-RR        3ZZ-RR
 --------------------------------------------------------
     1   Atom        0.000000      0.000000      0.000000
     2   Atom        0.000000      0.000000      0.000000
 --------------------------------------------------------
                        XY            XZ            YZ
 --------------------------------------------------------
     1   Atom        0.000000      0.000000     -0.161096
     2   Atom        0.000000      0.000000      0.001520
 --------------------------------------------------------


 ---------------------------------------------------------------------------------
              Anisotropic Spin Dipole Couplings in Principal Axis System
 ---------------------------------------------------------------------------------

       Atom             a.u.   MegaHertz   Gauss  10(-4) cm-1        Axes

              Baa    -0.1611   -27.582    -9.842    -9.200 -0.0000  0.7071  0.7071
     1 B(11)  Bbb     0.0000     0.000     0.000     0.000  1.0000  0.0000  0.0000
              Bcc     0.1611    27.582     9.842     9.200  0.0000  0.7071 -0.7071
 
              Baa    -0.0015    -0.811    -0.289    -0.271 -0.0000  0.7071 -0.7071
     2 H(1)   Bbb     0.0000     0.000     0.000     0.000  1.0000  0.0000 -0.0000
              Bcc     0.0015     0.811     0.289     0.271  0.0000  0.7071  0.7071
 

 ---------------------------------------------------------------------------------

 No NMR shielding tensors so no spin-rotation constants.
 Leave Link  601 at Sun May 22 18:30:58 2022, MaxMem=   104857600 cpu:               0.2 elap:               0.2
 (Enter /apps/software/g16/l801.exe)
 Range of M.O.s used for correlation:     1   126
 NBasis=   126 NAE=     3 NBE=     3 NFC=     0 NFV=     0
 NROrb=    126 NOA=     3 NOB=     3 NVA=   123 NVB=   123
 Leave Link  801 at Sun May 22 18:30:58 2022, MaxMem=   104857600 cpu:               0.0 elap:               0.0
 (Enter /apps/software/g16/l914.exe)
 UHF ground state
 Doing stability rather than CIS.
 Keep R1 and R2 ints in memory in symmetry-blocked form, NReq=40144005.
 FoFCou: FMM=F IPFlag=           0 FMFlag=           0 FMFlg1=           0
         NFxFlg=           0 DoJE=F BraDBF=F KetDBF=F FulRan=T
         wScrn=  0.000000 ICntrl=       600 IOpCl=  0 I1Cent=           0 NGrid=           0
         NMat0=    1 NMatS0=   8001 NMatT0=    0 NMatD0=    1 NMtDS0=    0 NMtDT0=    0
 Petite list used in FoFCou.
 MDV=   104857600 DFT=F DoStab=T Mixed=F DoRPA=F DoScal=F NonHer=F
 Making orbital integer symmetry assigments:
 Orbital symmetries:
 Alpha Orbitals:
       Occupied  (SG) (?A) (?A)
       Virtual   (?A) (?A) (?A) (?A) (?A) (?A) (?A) (?A) (?B) (?B)
                 (?B) (?B) (SG) (?C) (?C) (?C) (?C) (?C) (?C) (?C)
                 (?D) (?D) (?D) (?D) (?D) (?D) (?D) (?D) (SG) (PI)
                 (PI) (SG) (SG) (DLTA) (DLTA) (PI) (PI) (SG) (?E)
                 (?E) (?E) (PI) (PI) (SG) (?F) (?F) (?F) (?F) (?F)
                 (?F) (?F) (?F) (?F) (?F) (?F) (?F) (?F) (?F) (?F)
                 (?F) (?F) (?F) (SG) (PI) (PI) (PHI) (PHI) (SG)
                 (DLTA) (DLTA) (SG) (SG) (PI) (PI) (DLTA) (DLTA)
                 (PI) (PI) (PI) (PI) (SG) (SG) (PI) (PI) (?G) (?G)
                 (?H) (?H) (?H) (PHI) (PHI) (?H) (?H) (?I) (?I)
                 (?I) (?J) (?J) (?J) (?J) (?J) (?J) (?K) (?K) (?K)
                 (SG) (PHI) (PHI) (DLTA) (DLTA) (PI) (PI) (SG)
                 (SG) (PI) (PI) (SG) (DLTA) (DLTA) (PI) (PI) (SG)
                 (SG)
 Beta  Orbitals:
       Occupied  (SG) (?A) (?A)
       Virtual   (?A) (?A) (?A) (?A) (?A) (?A) (?A) (?A) (?B) (?B)
                 (?B) (?B) (SG) (?C) (?C) (?C) (?C) (?C) (?C) (?C)
                 (?D) (?D) (?D) (?D) (?D) (?D) (?D) (?D) (SG) (PI)
                 (PI) (SG) (SG) (DLTA) (DLTA) (PI) (PI) (SG) (?E)
                 (?E) (?E) (PI) (PI) (SG) (?F) (?F) (?F) (?F) (?F)
                 (?F) (?F) (?F) (?F) (?F) (?F) (?F) (?F) (?F) (?F)
                 (?F) (?F) (?F) (SG) (PI) (PI) (PHI) (PHI) (SG)
                 (DLTA) (DLTA) (SG) (SG) (PI) (PI) (DLTA) (DLTA)
                 (PI) (PI) (PI) (PI) (SG) (SG) (PI) (PI) (?G) (?G)
                 (?H) (?H) (?H) (PHI) (PHI) (?H) (?H) (?I) (?I)
                 (?I) (?J) (?J) (?J) (?J) (?J) (?J) (?K) (?K) (?K)
                 (SG) (PHI) (PHI) (DLTA) (DLTA) (PI) (PI) (SG)
                 (SG) (PI) (PI) (SG) (DLTA) (DLTA) (PI) (PI) (SG)
                 (SG)
    12 initial guesses have been made.
 Convergence on wavefunction:    0.001000000000000
 Davidson Disk Diagonalization:  ConvIn= 1.00D-03 SkipCon=T Conv= 1.00D-03.
 Max sub-space:  1476 roots to seek:    12 dimension of matrix:          738
 Iteration     1 Dimension    12 NMult     0 NNew     12
 CISAX will form    12 AO SS matrices at one time.
 NMat=    12 NSing=    12 JSym2X= 2.
 New state      1 was old state      5
 Excitation Energies [eV] at current iteration:
 Root      1 :    -2.308230807582439
 Root      2 :     0.448782496343384
 Root      3 :     1.219397320473780
 Root      4 :     2.668919721989966
 Root      5 :     2.714833457813320
 Root      6 :     2.891995884613884
 Root      7 :     3.219527714520955
 Root      8 :     5.784317068275866
 Root      9 :     5.791222593267352
 Root     10 :     9.788305931772467
 Root     11 :    11.429937091093402
 Root     12 :    11.714704994912644
 Iteration     2 Dimension    24 NMult    12 NNew     12
 CISAX will form    12 AO SS matrices at one time.
 NMat=    12 NSing=    12 JSym2X= 2.
 Root      1 not converged, maximum delta is    0.084170927445432
 Excitation Energies [eV] at current iteration:
 Root      1 :    -3.807168726167191   Change is   -1.498937918584751
 Root      2 :     0.012227817027105   Change is   -0.436554679316279
 Root      3 :     0.723303056331694   Change is   -0.496094264142086
 Root      4 :     1.965004921089996   Change is   -0.749828536723324
 Root      5 :     2.014534562794622   Change is   -0.654385159195345
 Root      6 :     2.167204125471774   Change is   -0.724791759142110
 Root      7 :     2.511013557928595   Change is   -0.708514156592361
 Root      8 :     5.375280971256076   Change is   -0.415941622011276
 Root      9 :     5.412610557134006   Change is   -0.371706511141861
 Root     10 :     6.867478124989728
 Root     11 :     7.794133635782364   Change is   -3.920571359130280
 Root     12 :     7.841711254182229   Change is   -3.588225836911173
 Iteration     3 Dimension    27 NMult    24 NNew      3
 CISAX will form     3 AO SS matrices at one time.
 NMat=     3 NSing=     3 JSym2X= 2.
 Root      1 not converged, maximum delta is    0.019073121080927
 Excitation Energies [eV] at current iteration:
 Root      1 :    -3.863977904869863   Change is   -0.056809178702673
 Root      2 :     0.000601270796633   Change is   -0.011626546230473
 Root      3 :     0.705313128009962   Change is   -0.017989928321732
 Iteration     4 Dimension    30 NMult    27 NNew      3
 CISAX will form     3 AO SS matrices at one time.
 NMat=     3 NSing=     3 JSym2X= 2.
 Root      1 not converged, maximum delta is    0.002754405674967
 Excitation Energies [eV] at current iteration:
 Root      1 :    -3.866171078631094   Change is   -0.002193173761231
 Root      2 :     0.000037839003561   Change is   -0.000563431793072
 Root      3 :     0.703968052432697   Change is   -0.001345075577265
 Cease iterating as an instability has been found.
 ***********************************************************************
 Stability analysis using <AA,BB:AA,BB> singles matrix:
 ***********************************************************************
 1PDM for each excited state written to RWF  633
 Ground to excited state transition densities written to RWF  633

 Eigenvectors of the stability matrix:
 
 Excited state symmetry could not be determined.
 Eigenvector   1:  2.980-?Sym  Eigenvalue=-0.1420792  <S**2>=1.970
      3A ->  4A       -0.35088
      3A ->  6A        0.42368
      3A ->  7A       -0.32184
      3A -> 10A       -0.19024
      3A -> 16A       -0.15194
      3B ->  4B       -0.35088
      3B ->  6B       -0.42368
      3B ->  7B        0.32184
      3B -> 10B        0.19024
      3B -> 16B        0.15194
 
 Excited state symmetry could not be determined.
 Eigenvector   2:  2.942-?Sym  Eigenvalue= 0.0000014  <S**2>=1.913
      2A ->  5A        0.39452
      2A ->  8A       -0.20560
      2A -> 18A       -0.12676
      2A -> 20A       -0.11214
      3A ->  5A       -0.46988
      3A ->  8A        0.19175
      2B ->  5B       -0.39452
      2B ->  8B        0.20560
      2B -> 18B        0.12676
      2B -> 20B        0.11214
      3B ->  5B        0.46988
      3B ->  8B       -0.19175
 
 Excited state symmetry could not be determined.
 Eigenvector   3:  2.761-?Sym  Eigenvalue= 0.0258703  <S**2>=1.655
      2A ->  4A        0.34397
      2A ->  9A       -0.18529
      2A -> 17A        0.11133
      3A ->  4A       -0.45759
      3A ->  6A       -0.19823
      3A ->  9A        0.21811
      2B ->  4B       -0.34397
      2B ->  9B        0.18529
      2B -> 17B        0.11133
      3B ->  4B        0.45759
      3B ->  6B       -0.19823
      3B ->  9B       -0.21811
 The wavefunction has an internal instability.
 Leave Link  914 at Sun May 22 18:31:02 2022, MaxMem=   104857600 cpu:               4.0 elap:               4.0
 (Enter /apps/software/g16/l508.exe)
 Keep R1 and R2 ints in memory in symmetry-blocked form, NReq=40144065.
 FoFCou: FMM=F IPFlag=           0 FMFlag=           0 FMFlg1=           0
         NFxFlg=           0 DoJE=F BraDBF=F KetDBF=F FulRan=T
         wScrn=  0.000000 ICntrl=       600 IOpCl=  0 I1Cent=           0 NGrid=           0
         NMat0=    1 NMatS0=   8001 NMatT0=    0 NMatD0=    1 NMtDS0=    0 NMtDT0=    0
 Petite list used in FoFCou.
 Tight linear equation convergence will be used.
 UHF wavefunction.
 Quadratic Convergence SCF Method.
 Line search only if initial step raises energy.
 Perform preliminary linear searches along instability eigenvector.
     ILin= 1 X=0.000D+00 Y=-2.498723573443D+01 DE= 0.00D+00
     ILin= 2 X=1.000D-01 Y=-2.498863986650D+01 DE=-1.40D-03
     ILin= 3 X=1.414D-01 Y=-2.499001088282D+01 DE=-2.78D-03
     ILin= 4 X=2.000D-01 Y=-2.499265472520D+01 DE=-5.42D-03
     ILin= 5 X=2.828D-01 Y=-2.499755764647D+01 DE=-1.03D-02
     ILin= 6 X=4.000D-01 Y=-2.500588705643D+01 DE=-1.87D-02
     ILin= 7 X=5.657D-01 Y=-2.501711959207D+01 DE=-2.99D-02
     ILin= 8 X=8.000D-01 Y=-2.502138874038D+01 DE=-3.42D-02
     ILin= 9 X=1.131D+00 Y=-2.498054734565D+01 DE= 6.69D-03
     An  expanding polynomial of degree  9 produced  0.7351
 Iteration F X= 7.351D-01 EE=-2.502234280276738D+01
     ILin= 1 X=0.000D+00 Y=-2.498723573443D+01 DE= 0.00D+00
     ILin= 2 X=1.000D-01 Y=-2.498863986426D+01 DE=-1.40D-03
     ILin= 3 X=1.414D-01 Y=-2.499001087647D+01 DE=-2.78D-03
 The two search directions are symmetric.
 Iteration B X= 7.351D-01 EE=-2.502234280276738D+01
 Take forward step, X= 7.351D-01 Step= 7.351D-01
 Iteration   1 EE= -25.0223429983418                                    Grad=7.081D-02 Max rot=    1.2326 deg.
 Gradient too large for Newton-Raphson -- use scaled steepest descent instead.
 Alpha Gap=     0.331 HL deriv= 3.53D-02
  Beta Gap=     0.458 HL deriv= 1.38D-02
     ILin= 1 X=0.000D+00 Y=-2.502234299834D+01 DE= 0.00D+00 F= -1.27D-02
     ILin= 2 X=3.000D-01 Y=-2.502582921646D+01 DE=-3.49D-03 F= -1.05D-02
     ILin= 3 X=5.000D-01 Y=-2.502778706219D+01 DE=-5.44D-03 F= -9.05D-03
     ILin= 4 X=1.000D+00 Y=-2.503136090158D+01 DE=-9.02D-03 F= -5.23D-03
     ILin= 5 X=1.700D+00 Y=-2.503308218552D+01 DE=-1.07D-02 F=  3.45D-04
     Accept linear search using points  4 and  5.
     An  expanding polynomial of degree  5 produced  1.5932
     Minimum is close to point  5 DX= -1.07D-01 DF= -2.80D-05 DXR=  6.70D-02 DFR=  2.60D-03 which will be used.
 Iteration   2 EE= -25.0330821855212     Delta-E=       -0.010739187179 Grad=3.183D-02 Max rot=    0.4776 deg.
 Gradient too large for Newton-Raphson -- use scaled steepest descent instead.
 Alpha Gap=     0.348 HL deriv= 1.59D-02
  Beta Gap=     0.487 HL deriv= 1.00D-02
     ILin= 1 X=0.000D+00 Y=-2.503308218552D+01 DE= 0.00D+00 F= -2.53D-03
     ILin= 2 X=7.000D-01 Y=-2.503449288670D+01 DE=-1.41D-03 F= -1.49D-03
     ILin= 3 X=1.400D+00 Y=-2.503515252162D+01 DE=-2.07D-03 F= -3.89D-04
     Reject lnstep minimum 1.878D+00 FVal=-2.503535027825D+01 Lims=  7.00D-01  1.40D+00
     ILin= 4 X=2.800D+00 Y=-2.503408495730D+01 DE=-1.00D-03 F=  1.94D-03
     An  expanding polynomial of degree  4 produced  1.6418
 Iteration   3 EE= -25.0351994907587     Delta-E=       -0.002117305237 Grad=1.811D-02 Max rot=    0.3780 deg.
 Gradient too large for Newton-Raphson -- use scaled steepest descent instead.
 Alpha Gap=     0.356 HL deriv= 5.48D-03
  Beta Gap=     0.500 HL deriv= 6.45D-04
     ILin= 1 X=0.000D+00 Y=-2.503519949076D+01 DE= 0.00D+00 F= -6.39D-04
     ILin= 2 X=1.600D+00 Y=-2.503574459154D+01 DE=-5.45D-04 F= -4.13D-05
     ILin= 3 X=3.200D+00 Y=-2.503532678556D+01 DE=-1.27D-04 F=  5.65D-04
     An  expanding polynomial of degree  3 produced  1.7058
     Minimum is close to point  2 DX=  1.06D-01 DF= -2.10D-06 DXR=  6.20D-02 DFR=  3.86D-03 which will be used.
 Iteration   4 EE= -25.0357445915439     Delta-E=       -0.000545100785 Grad=9.353D-03 Max rot=    0.1528 deg.
 QCNR:  CnvC1=2.72D-09 CnvC2=2.72D-08
 LinEq1:  Iter=  0 NonCon=     1 RMS=4.28D-04 Max=4.13D-03 NDo=     1
 AX will form     1 AO Fock derivatives at one time.
 LinEq1:  Iter=  1 NonCon=     1 RMS=1.17D-04 Max=9.71D-04 NDo=     1
 LinEq1:  Iter=  2 NonCon=     1 RMS=3.09D-05 Max=2.97D-04 NDo=     1
 LinEq1:  Iter=  3 NonCon=     1 RMS=4.63D-06 Max=3.63D-05 NDo=     1
 LinEq1:  Iter=  4 NonCon=     1 RMS=1.25D-06 Max=1.77D-05 NDo=     1
 LinEq1:  Iter=  5 NonCon=     1 RMS=3.12D-07 Max=2.98D-06 NDo=     1
 LinEq1:  Iter=  6 NonCon=     1 RMS=4.35D-08 Max=2.92D-07 NDo=     1
 LinEq1:  Iter=  7 NonCon=     1 RMS=9.15D-09 Max=7.87D-08 NDo=     1
 LinEq1:  Iter=  8 NonCon=     0 RMS=1.78D-09 Max=1.27D-08 NDo=     1
 Linear equations converged to 2.717D-09 2.717D-08 after     8 iterations.
 Angle between quadratic step and gradient=  69.10 degrees.
     ILin= 1 X=0.000D+00 Y=-2.503574459154D+01 DE= 0.00D+00 F= -1.49D-03
     ILin= 2 X=1.000D+00 Y=-2.503650946758D+01 DE=-7.65D-04 F=  2.92D-05
     Accept linear search using points  1 and  2.
     An  expanding polynomial of degree  2 produced  0.9832
     Minimum is close to point  2 DX= -1.68D-02 DF= -2.46D-07 DXR=  1.71D-02 DFR=  3.22D-04 which will be used.
 Iteration   5 EE= -25.0365094675796     Delta-E=       -0.000764876036 Grad=6.952D-03 Max rot=    0.1037 deg.
 QCNR:  CnvC1=2.72D-09 CnvC2=2.72D-08
 LinEq1:  Iter=  0 NonCon=     1 RMS=2.43D-04 Max=3.19D-03 NDo=     1
 LinEq1:  Iter=  1 NonCon=     1 RMS=5.08D-05 Max=4.33D-04 NDo=     1
 LinEq1:  Iter=  2 NonCon=     1 RMS=1.30D-05 Max=9.54D-05 NDo=     1
 LinEq1:  Iter=  3 NonCon=     1 RMS=3.78D-06 Max=3.89D-05 NDo=     1
 LinEq1:  Iter=  4 NonCon=     1 RMS=7.42D-07 Max=6.83D-06 NDo=     1
 LinEq1:  Iter=  5 NonCon=     1 RMS=1.44D-07 Max=1.74D-06 NDo=     1
 LinEq1:  Iter=  6 NonCon=     1 RMS=4.52D-08 Max=5.73D-07 NDo=     1
 LinEq1:  Iter=  7 NonCon=     1 RMS=1.21D-08 Max=1.24D-07 NDo=     1
 LinEq1:  Iter=  8 NonCon=     0 RMS=2.28D-09 Max=2.13D-08 NDo=     1
 Linear equations converged to 2.717D-09 2.717D-08 after     8 iterations.
 Angle between quadratic step and gradient=  71.01 degrees.
     ILin= 1 X=0.000D+00 Y=-2.503650946758D+01 DE= 0.00D+00 F= -2.50D-04
     ILin= 2 X=1.000D+00 Y=-2.503664040468D+01 DE=-1.31D-04 F= -1.94D-05
     Reject lnstep minimum 1.094D+00 FVal=-2.503664131306D+01 Lims=  0.00D+00  1.00D+00
     ILin= 3 X=2.000D+00 Y=-2.503656078297D+01 DE=-5.13D-05 F=  1.74D-04
     An  expanding polynomial of degree  3 produced  1.1219
 Iteration   6 EE= -25.0366412250641     Delta-E=       -0.000131757484 Grad=4.230D-03 Max rot=    0.0928 deg.
 QCNR:  CnvC1=2.72D-09 CnvC2=2.72D-08
 LinEq1:  Iter=  0 NonCon=     1 RMS=5.31D-05 Max=4.76D-04 NDo=     1
 LinEq1:  Iter=  1 NonCon=     1 RMS=1.66D-05 Max=1.94D-04 NDo=     1
 LinEq1:  Iter=  2 NonCon=     1 RMS=4.69D-06 Max=5.47D-05 NDo=     1
 LinEq1:  Iter=  3 NonCon=     1 RMS=1.18D-06 Max=9.37D-06 NDo=     1
 LinEq1:  Iter=  4 NonCon=     1 RMS=1.77D-07 Max=1.18D-06 NDo=     1
 LinEq1:  Iter=  5 NonCon=     1 RMS=3.98D-08 Max=3.56D-07 NDo=     1
 LinEq1:  Iter=  6 NonCon=     1 RMS=1.20D-08 Max=7.95D-08 NDo=     1
 LinEq1:  Iter=  7 NonCon=     0 RMS=1.93D-09 Max=2.07D-08 NDo=     1
 Linear equations converged to 2.717D-09 2.717D-08 after     7 iterations.
 Angle between quadratic step and gradient=  85.99 degrees.
     ILin= 1 X=0.000D+00 Y=-2.503664122506D+01 DE= 0.00D+00 F= -2.19D-05
     ILin= 2 X=1.000D+00 Y=-2.503665128695D+01 DE=-1.01D-05 F=  1.96D-06
     Accept linear search using points  1 and  2.
     An  expanding polynomial of degree  2 produced  0.9193
     Minimum is close to point  2 DX= -8.07D-02 DF= -7.92D-08 DXR=  8.78D-02 DFR=  7.87D-03 which will be used.
 Iteration   7 EE= -25.0366512869508     Delta-E=       -0.000010061887 Grad=1.996D-03 Max rot=    0.0566 deg.
 QCNR:  CnvC1=2.72D-09 CnvC2=2.72D-08
 LinEq1:  Iter=  0 NonCon=     1 RMS=1.92D-05 Max=2.09D-04 NDo=     1
 LinEq1:  Iter=  1 NonCon=     1 RMS=4.72D-06 Max=5.03D-05 NDo=     1
 LinEq1:  Iter=  2 NonCon=     1 RMS=1.11D-06 Max=7.67D-06 NDo=     1
 LinEq1:  Iter=  3 NonCon=     1 RMS=3.07D-07 Max=2.65D-06 NDo=     1
 LinEq1:  Iter=  4 NonCon=     1 RMS=8.10D-08 Max=6.50D-07 NDo=     1
 LinEq1:  Iter=  5 NonCon=     1 RMS=1.29D-08 Max=1.37D-07 NDo=     1
 LinEq1:  Iter=  6 NonCon=     1 RMS=2.40D-09 Max=3.40D-08 NDo=     1
 LinEq1:  Iter=  7 NonCon=     0 RMS=8.88D-10 Max=1.11D-08 NDo=     1
 Linear equations converged to 2.717D-09 2.717D-08 after     7 iterations.
 Angle between quadratic step and gradient=  78.56 degrees.
     ILin= 1 X=0.000D+00 Y=-2.503665128695D+01 DE= 0.00D+00 F= -1.39D-06
     ILin= 2 X=1.000D+00 Y=-2.503665197867D+01 DE=-6.92D-07 F=  2.12D-09
     Accept linear search using points  1 and  2.
     An  expanding polynomial of degree  2 produced  0.9985
     Minimum is close to point  2 DX= -1.53D-03 DF= -1.62D-12 DXR=  1.53D-03 DFR=  2.35D-06 which will be used.
 Iteration   8 EE= -25.0366519786691     Delta-E=       -0.000000691718 Grad=4.437D-05 Max rot=    0.0006 deg.
 QCNR:  CnvC1=4.44D-10 CnvC2=4.44D-09
 LinEq1:  Iter=  0 NonCon=     1 RMS=6.30D-07 Max=7.94D-06 NDo=     1
 LinEq1:  Iter=  1 NonCon=     1 RMS=2.53D-07 Max=3.49D-06 NDo=     1
 LinEq1:  Iter=  2 NonCon=     1 RMS=4.97D-08 Max=5.28D-07 NDo=     1
 LinEq1:  Iter=  3 NonCon=     1 RMS=8.50D-09 Max=5.89D-08 NDo=     1
 LinEq1:  Iter=  4 NonCon=     1 RMS=1.90D-09 Max=1.56D-08 NDo=     1
 LinEq1:  Iter=  5 NonCon=     0 RMS=3.95D-10 Max=3.94D-09 NDo=     1
 Linear equations converged to 4.437D-10 4.437D-09 after     5 iterations.
 Angle between quadratic step and gradient=  83.74 degrees.
     ILin= 1 X=0.000D+00 Y=-2.503665197867D+01 DE= 0.00D+00 F= -8.09D-09
     ILin= 2 X=1.000D+00 Y=-2.503665198277D+01 DE=-4.10D-09
 Iteration   9 EE= -25.0366519827689     Delta-E=       -0.000000004100 Grad=3.212D-05 Max rot=    0.0009 deg.
 QCNR:  CnvC1=3.21D-10 CnvC2=3.21D-09
 LinEq1:  Iter=  0 NonCon=     1 RMS=2.71D-07 Max=2.70D-06 NDo=     1
 LinEq1:  Iter=  1 NonCon=     1 RMS=9.83D-08 Max=9.76D-07 NDo=     1
 LinEq1:  Iter=  2 NonCon=     1 RMS=2.39D-08 Max=2.00D-07 NDo=     1
 LinEq1:  Iter=  3 NonCon=     1 RMS=4.20D-09 Max=3.77D-08 NDo=     1
 LinEq1:  Iter=  4 NonCon=     1 RMS=9.11D-10 Max=1.12D-08 NDo=     1
 LinEq1:  Iter=  5 NonCon=     1 RMS=3.19D-10 Max=3.88D-09 NDo=     1
 LinEq1:  Iter=  6 NonCon=     0 RMS=6.08D-11 Max=5.83D-10 NDo=     1
 Linear equations converged to 3.212D-10 3.212D-09 after     6 iterations.
 Angle between quadratic step and gradient=  83.45 degrees.
     ILin= 1 X=0.000D+00 Y=-2.503665198277D+01 DE= 0.00D+00 F= -7.96D-10
     ILin= 2 X=1.000D+00 Y=-2.503665198315D+01 DE=-3.84D-10
 Iteration  10 EE= -25.0366519831530     Delta-E=       -0.000000000384 Grad=6.252D-06 Max rot=    0.0001 deg.
 QCNR:  CnvC1=6.25D-11 CnvC2=6.25D-10
 LinEq1:  Iter=  0 NonCon=     1 RMS=1.10D-07 Max=1.06D-06 NDo=     1
 LinEq1:  Iter=  1 NonCon=     1 RMS=3.11D-08 Max=3.04D-07 NDo=     1
 LinEq1:  Iter=  2 NonCon=     1 RMS=8.59D-09 Max=1.08D-07 NDo=     1
 LinEq1:  Iter=  3 NonCon=     1 RMS=2.03D-09 Max=2.74D-08 NDo=     1
 LinEq1:  Iter=  4 NonCon=     1 RMS=3.09D-10 Max=1.98D-09 NDo=     1
 LinEq1:  Iter=  5 NonCon=     0 RMS=4.68D-11 Max=3.64D-10 NDo=     1
 Linear equations converged to 6.252D-11 6.252D-10 after     5 iterations.
 Angle between quadratic step and gradient=  84.20 degrees.
     ILin= 1 X=0.000D+00 Y=-2.503665198315D+01 DE= 0.00D+00 F= -7.74D-11
     ILin= 2 X=1.000D+00 Y=-2.503665198319D+01 DE=-3.70D-11
 Iteration  11 EE= -25.0366519831900     Delta-E=       -0.000000000037 Grad=4.952D-06 Max rot=    0.0002 deg.
 QCNR:  CnvC1=4.95D-11 CnvC2=4.95D-10
 LinEq1:  Iter=  0 NonCon=     1 RMS=3.07D-08 Max=2.39D-07 NDo=     1
 LinEq1:  Iter=  1 NonCon=     1 RMS=1.17D-08 Max=1.02D-07 NDo=     1
 LinEq1:  Iter=  2 NonCon=     1 RMS=2.72D-09 Max=2.00D-08 NDo=     1
 LinEq1:  Iter=  3 NonCon=     1 RMS=5.33D-10 Max=5.36D-09 NDo=     1
 LinEq1:  Iter=  4 NonCon=     1 RMS=1.16D-10 Max=1.49D-09 NDo=     1
 LinEq1:  Iter=  5 NonCon=     0 RMS=3.75D-11 Max=4.94D-10 NDo=     1
 Linear equations converged to 4.952D-11 4.952D-10 after     5 iterations.
 Angle between quadratic step and gradient=  84.18 degrees.
     ILin= 1 X=0.000D+00 Y=-2.503665198319D+01 DE= 0.00D+00 F= -1.12D-11
     ILin= 2 X=1.000D+00 Y=-2.503665198320D+01 DE=-5.49D-12
 Iteration  12 EE= -25.0366519831955     Delta-E=       -0.000000000005 Grad=9.002D-07 Max rot=    0.0000 deg.
 QCNR:  CnvC1=9.00D-12 CnvC2=9.00D-11
 LinEq1:  Iter=  0 NonCon=     1 RMS=8.61D-09 Max=1.13D-07 NDo=     1
 LinEq1:  Iter=  1 NonCon=     1 RMS=3.26D-09 Max=4.14D-08 NDo=     1
 LinEq1:  Iter=  2 NonCon=     1 RMS=7.86D-10 Max=8.03D-09 NDo=     1
 LinEq1:  Iter=  3 NonCon=     1 RMS=1.50D-10 Max=1.41D-09 NDo=     1
 LinEq1:  Iter=  4 NonCon=     1 RMS=2.67D-11 Max=2.12D-10 NDo=     1
 LinEq1:  Iter=  5 NonCon=     1 RMS=9.19D-12 Max=7.46D-11 NDo=     1
 LinEq1:  Iter=  6 NonCon=     0 RMS=2.02D-12 Max=1.97D-11 NDo=     1
 Linear equations converged to 9.002D-12 9.002D-11 after     6 iterations.
 Angle between quadratic step and gradient=  85.72 degrees.
     ILin= 1 X=0.000D+00 Y=-2.503665198320D+01 DE= 0.00D+00 F= -1.36D-12
     ILin= 2 X=1.000D+00 Y=-2.503665198320D+01 DE=-6.96D-13
 Iteration  13 EE= -25.0366519831962     Delta-E=       -0.000000000001 Grad=7.804D-07 Max rot=    0.0000 deg.
 QCNR:  CnvC1=7.80D-12 CnvC2=7.80D-11
 LinEq1:  Iter=  0 NonCon=     1 RMS=5.99D-09 Max=5.82D-08 NDo=     1
 LinEq1:  Iter=  1 NonCon=     1 RMS=1.68D-09 Max=1.37D-08 NDo=     1
 LinEq1:  Iter=  2 NonCon=     1 RMS=5.24D-10 Max=4.42D-09 NDo=     1
 LinEq1:  Iter=  3 NonCon=     1 RMS=1.13D-10 Max=9.04D-10 NDo=     1
 LinEq1:  Iter=  4 NonCon=     1 RMS=2.11D-11 Max=1.68D-10 NDo=     1
 LinEq1:  Iter=  5 NonCon=     1 RMS=6.19D-12 Max=9.13D-11 NDo=     1
 LinEq1:  Iter=  6 NonCon=     0 RMS=1.61D-12 Max=1.54D-11 NDo=     1
 Linear equations converged to 7.804D-12 7.804D-11 after     6 iterations.
 Angle between quadratic step and gradient=  84.35 degrees.
     ILin= 1 X=0.000D+00 Y=-2.503665198320D+01 DE= 0.00D+00 F= -2.38D-13
     ILin= 2 X=1.000D+00 Y=-2.503665198320D+01 DE=-1.21D-13
 Iteration  14 EE= -25.0366519831963     Delta-E=       -0.000000000000 Grad=1.680D-07 Max rot=    0.0000 deg.
 Rotation gradient small -- convergence achieved.
 Orbital symmetries in SymMO:
    1=1    2=1    3=1    4=3    5=4    6=1    7=1    8=3    9=4   10=1
   11=1   12=1   13=2   14=3   15=4   16=1   17=3   18=4   19=1   20=1
   21=3   22=4   23=1   24=4   25=3   26=1   27=2   28=3   29=4   30=1
   31=2   32=1   33=4   34=3   35=1   36=1   37=1   38=2   39=3   40=4
   41=1   42=4   43=3   44=1   45=4   46=3   47=1   48=1   49=2   50=4
   51=3   52=1   53=2   54=4   55=3   56=1   57=2   58=1   59=1   60=4
   61=3   62=4   63=3   64=1   65=2   66=1   67=4   68=3   69=3   70=4
   71=1   72=1   73=2   74=1   75=1   76=4   77=3   78=2   79=1   80=3
   81=4   82=3   83=4   84=1   85=1   86=4   87=3   88=2   89=1   90=4
   91=3   92=1   93=1   94=2   95=4   96=3   97=1   98=2   99=1  100=4
  101=3  102=4  103=3  104=1  105=2  106=4  107=3  108=1  109=1  110=3
  111=4  112=1  113=2  114=3  115=4  116=1  117=1  118=3  119=4  120=1
  121=2  122=1  123=3  124=4  125=1  126=1
 Orbital symmetries in SymMO:
    1=1    2=1    3=1    4=4    5=3    6=1    7=1    8=4    9=3   10=1
   11=1   12=2   13=1   14=4   15=3   16=1   17=4   18=3   19=1   20=4
   21=3   22=1   23=1   24=4   25=3   26=2   27=1   28=1   29=2   30=1
   31=4   32=3   33=4   34=3   35=1   36=1   37=2   38=1   39=4   40=3
   41=1   42=4   43=3   44=1   45=4   46=3   47=1   48=1   49=2   50=4
   51=3   52=1   53=2   54=4   55=3   56=2   57=1   58=4   59=3   60=1
   61=1   62=4   63=3   64=1   65=2   66=1   67=3   68=4   69=4   70=3
   71=1   72=1   73=2   74=1   75=1   76=4   77=3   78=2   79=1   80=3
   81=4   82=4   83=3   84=1   85=1   86=4   87=3   88=2   89=1   90=4
   91=3   92=1   93=2   94=1   95=4   96=3   97=1   98=2   99=1  100=4
  101=3  102=4  103=3  104=1  105=2  106=4  107=3  108=1  109=1  110=3
  111=4  112=1  113=2  114=3  115=4  116=1  117=1  118=3  119=4  120=1
  121=2  122=1  123=3  124=4  125=1  126=1
 SCF Done:  E(UHF) =  -25.0366519832     a.u. after   14 cycles
            Convg  =    0.1680D-06                    96 Fock formations.
              S**2 =  0.8841                  -V/T =  2.0012
 <Sx>= 0.0000 <Sy>= 0.0000 <Sz>= 0.0000 <S**2>= 0.8841 S= 0.5649
 <L.S>=  0.00000000000    
 Annihilation of the first spin contaminant:
 S**2 before annihilation     0.8841,   after     0.0620
 Leave Link  508 at Sun May 22 18:31:07 2022, MaxMem=   104857600 cpu:               5.4 elap:               5.4
 (Enter /apps/software/g16/l801.exe)
 Range of M.O.s used for correlation:     1   126
 NBasis=   126 NAE=     3 NBE=     3 NFC=     0 NFV=     0
 NROrb=    126 NOA=     3 NOB=     3 NVA=   123 NVB=   123
 Leave Link  801 at Sun May 22 18:31:07 2022, MaxMem=   104857600 cpu:               0.0 elap:               0.0
 (Enter /apps/software/g16/l914.exe)
 UHF ground state
 Doing stability rather than CIS.
 Keep R1 and R2 ints in memory in symmetry-blocked form, NReq=40144005.
 FoFCou: FMM=F IPFlag=           0 FMFlag=           0 FMFlg1=           0
         NFxFlg=           0 DoJE=F BraDBF=F KetDBF=F FulRan=T
         wScrn=  0.000000 ICntrl=       600 IOpCl=  0 I1Cent=           0 NGrid=           0
         NMat0=    1 NMatS0=   8001 NMatT0=    0 NMatD0=    1 NMtDS0=    0 NMtDT0=    0
 Petite list used in FoFCou.
 MDV=   104857600 DFT=F DoStab=T Mixed=F DoRPA=F DoScal=F NonHer=F
 Making orbital integer symmetry assigments:
 Orbital symmetries:
 Alpha Orbitals:
       Occupied  (SG) (SG) (SG)
       Virtual   (PI) (PI) (SG) (SG) (PI) (PI) (SG) (SG) (DLTA)
                 (DLTA) (PI) (PI) (SG) (PI) (PI) (SG) (SG) (PI)
                 (PI) (SG) (PHI) (PHI) (DLTA) (DLTA) (PI) (PI)
                 (DLTA) (DLTA) (SG) (PI) (PI) (SG) (SG) (DLTA)
                 (DLTA) (PI) (PI) (SG) (PI) (PI) (SG) (PI) (PI)
                 (SG) (DLTA) (DLTA) (PHI) (PHI) (?A) (?A) (PI)
                 (PI) (SG) (DLTA) (DLTA) (SG) (PHI) (PHI) (PI)
                 (PI) (DLTA) (DLTA) (SG) (PI) (PI) (PHI) (PHI)
                 (SG) (DLTA) (DLTA) (SG) (SG) (PI) (PI) (DLTA)
                 (DLTA) (PI) (PI) (PI) (PI) (SG) (SG) (PI) (PI)
                 (?A) (?A) (PHI) (PHI) (SG) (DLTA) (DLTA) (PI)
                 (PI) (DLTA) (DLTA) (SG) (PHI) (PHI) (PI) (PI)
                 (DLTA) (DLTA) (PI) (PI) (SG) (SG) (PHI) (PHI)
                 (DLTA) (DLTA) (PI) (PI) (SG) (SG) (PI) (PI) (SG)
                 (DLTA) (DLTA) (PI) (PI) (SG) (SG)
 Beta  Orbitals:
       Occupied  (SG) (SG) (SG)
       Virtual   (PI) (PI) (SG) (SG) (PI) (PI) (SG) (SG) (DLTA)
                 (DLTA) (PI) (PI) (SG) (PI) (PI) (SG) (PI) (PI)
                 (SG) (SG) (PHI) (PHI) (DLTA) (DLTA) (SG) (DLTA)
                 (DLTA) (PI) (PI) (PI) (PI) (SG) (SG) (DLTA) (DLTA)
                 (PI) (PI) (SG) (PI) (PI) (SG) (PI) (PI) (SG) (DLTA)
                 (DLTA) (PHI) (PHI) (?A) (?A) (PI) (PI) (DLTA)
                 (DLTA) (PHI) (PHI) (SG) (SG) (PI) (PI) (DLTA)
                 (DLTA) (SG) (PHI) (PHI) (PI) (PI) (SG) (DLTA)
                 (DLTA) (SG) (SG) (PI) (PI) (DLTA) (DLTA) (PI)
                 (PI) (PI) (PI) (SG) (SG) (PI) (PI) (?A) (?A) (PHI)
                 (PHI) (DLTA) (DLTA) (SG) (PI) (PI) (DLTA) (DLTA)
                 (SG) (PHI) (PHI) (PI) (PI) (DLTA) (DLTA) (PI)
                 (PI) (SG) (SG) (PHI) (PHI) (DLTA) (DLTA) (PI)
                 (PI) (SG) (SG) (PI) (PI) (SG) (DLTA) (DLTA) (PI)
                 (PI) (SG) (SG)
    12 initial guesses have been made.
 Convergence on wavefunction:    0.001000000000000
 Davidson Disk Diagonalization:  ConvIn= 1.00D-03 SkipCon=T Conv= 1.00D-03.
 Max sub-space:  1476 roots to seek:    12 dimension of matrix:          738
 Iteration     1 Dimension    12 NMult     0 NNew     12
 CISAX will form    12 AO SS matrices at one time.
 NMat=    12 NSing=    12 JSym2X= 2.
 New state      1 was old state      2
 Excitation Energies [eV] at current iteration:
 Root      1 :     0.620823789782035
 Root      2 :     0.667465374888793
 Root      3 :     1.236480659324101
 Root      4 :     1.243216224062752
 Root      5 :     5.067325707251261
 Root      6 :     6.110776541270186
 Root      7 :     6.699093409518502
 Root      8 :     8.255717621445790
 Root      9 :     9.912174827506906
 Root     10 :     9.912185881676107
 Root     11 :    11.793628326232964
 Root     12 :    11.793726727883030
 Iteration     2 Dimension    24 NMult    12 NNew     12
 CISAX will form    12 AO SS matrices at one time.
 NMat=    12 NSing=    12 JSym2X= 2.
 Root      1 not converged, maximum delta is    0.066148127231630
 Excitation Energies [eV] at current iteration:
 Root      1 :     0.129160007054679   Change is   -0.491663782727356
 Root      2 :     0.132063232684991   Change is   -0.535402142203802
 Root      3 :     0.819127138891894   Change is   -0.417353520432207
 Root      4 :     0.819649137459074   Change is   -0.423567086603679
 Root      5 :     4.458857039353493   Change is   -0.608468667897768
 Root      6 :     5.100572971675388   Change is   -1.010203569594798
 Root      7 :     6.308430338456893   Change is   -1.947287282988897
 Root      8 :     6.611870893390439   Change is   -0.087222516128063
 Root      9 :     8.308776175633485   Change is   -1.603409706042623
 Root     10 :     8.311647158687592   Change is   -1.600527668819314
 Root     11 :     8.949475800874485   Change is   -2.844250927008544
 Root     12 :     8.958273059798559   Change is   -2.835355266434404
 Iteration     3 Dimension    27 NMult    24 NNew      3
 CISAX will form     3 AO SS matrices at one time.
 NMat=     3 NSing=     3 JSym2X= 2.
 Root      1 not converged, maximum delta is    0.005927032488397
 Excitation Energies [eV] at current iteration:
 Root      1 :     0.122562389731144   Change is   -0.006597617323535
 Root      2 :     0.122628088217061   Change is   -0.009435144467930
 Root      3 :     0.807536129683368   Change is   -0.011591009208526
 Iteration     4 Dimension    30 NMult    27 NNew      3
 CISAX will form     3 AO SS matrices at one time.
 NMat=     3 NSing=     3 JSym2X= 2.
 Root      1 has converged.
 Excitation Energies [eV] at current iteration:
 Root      1 :     0.122493930681533   Change is   -0.000068459049611
 Root      2 :     0.122495512514768   Change is   -0.000132575702292
 Root      3 :     0.807332451568465   Change is   -0.000203678114903
 Convergence achieved on expansion vectors.
 ***********************************************************************
 Stability analysis using <AA,BB:AA,BB> singles matrix:
 ***********************************************************************
 1PDM for each excited state written to RWF  633
 Ground to excited state transition densities written to RWF  633

 Eigenvectors of the stability matrix:
 
 Excited state symmetry could not be determined.
 Eigenvector   1:  2.411-?Sym  Eigenvalue= 0.0045016  <S**2>=1.203
      2A ->  5A        0.10041
      3A ->  5A        0.69197
      3A ->  9A       -0.59925
      3A -> 18A       -0.10461
      3A -> 22A       -0.24848
      3B ->  4B       -0.11791
      3B ->  8B        0.12765
 The wavefunction is stable under the perturbations considered.
 Leave Link  914 at Sun May 22 18:31:11 2022, MaxMem=   104857600 cpu:               3.9 elap:               3.9
 (Enter /apps/software/g16/l508.exe)
 The wavefunction is already stable.
 Leave Link  508 at Sun May 22 18:31:11 2022, MaxMem=   104857600 cpu:               0.0 elap:               0.0
 (Enter /apps/software/g16/l601.exe)
 Copying SCF densities to generalized density rwf, IOpCl= 1 IROHF=0.

 **********************************************************************

            Population analysis using the SCF density.

 **********************************************************************

 Orbital symmetries:
 Alpha Orbitals:
       Occupied  (SG) (SG) (SG)
       Virtual   (PI) (PI) (SG) (SG) (PI) (PI) (SG) (SG) (DLTA)
                 (DLTA) (PI) (PI) (SG) (PI) (PI) (SG) (SG) (PI)
                 (PI) (SG) (PHI) (PHI) (DLTA) (DLTA) (PI) (PI)
                 (DLTA) (DLTA) (SG) (PI) (PI) (SG) (SG) (DLTA)
                 (DLTA) (PI) (PI) (SG) (PI) (PI) (SG) (PI) (PI)
                 (SG) (DLTA) (DLTA) (PHI) (PHI) (?A) (?A) (PI)
                 (PI) (SG) (DLTA) (DLTA) (SG) (PHI) (PHI) (PI)
                 (PI) (DLTA) (DLTA) (SG) (PI) (PI) (PHI) (PHI)
                 (SG) (DLTA) (DLTA) (SG) (SG) (PI) (PI) (DLTA)
                 (DLTA) (PI) (PI) (PI) (PI) (SG) (SG) (PI) (PI)
                 (?A) (?A) (PHI) (PHI) (SG) (DLTA) (DLTA) (PI)
                 (PI) (DLTA) (DLTA) (SG) (PHI) (PHI) (PI) (PI)
                 (DLTA) (DLTA) (PI) (PI) (SG) (SG) (PHI) (PHI)
                 (DLTA) (DLTA) (PI) (PI) (SG) (SG) (PI) (PI) (SG)
                 (DLTA) (DLTA) (PI) (PI) (SG) (SG)
 Beta  Orbitals:
       Occupied  (SG) (SG) (SG)
       Virtual   (PI) (PI) (SG) (SG) (PI) (PI) (SG) (SG) (DLTA)
                 (DLTA) (PI) (PI) (SG) (PI) (PI) (SG) (PI) (PI)
                 (SG) (SG) (PHI) (PHI) (DLTA) (DLTA) (SG) (DLTA)
                 (DLTA) (PI) (PI) (PI) (PI) (SG) (SG) (DLTA) (DLTA)
                 (PI) (PI) (SG) (PI) (PI) (SG) (PI) (PI) (SG) (DLTA)
                 (DLTA) (PHI) (PHI) (?A) (?A) (PI) (PI) (DLTA)
                 (DLTA) (PHI) (PHI) (SG) (SG) (PI) (PI) (DLTA)
                 (DLTA) (SG) (PHI) (PHI) (PI) (PI) (SG) (DLTA)
                 (DLTA) (SG) (SG) (PI) (PI) (DLTA) (DLTA) (PI)
                 (PI) (PI) (PI) (SG) (SG) (PI) (PI) (?A) (?A) (PHI)
                 (PHI) (DLTA) (DLTA) (SG) (PI) (PI) (DLTA) (DLTA)
                 (SG) (PHI) (PHI) (PI) (PI) (DLTA) (DLTA) (PI)
                 (PI) (SG) (SG) (PHI) (PHI) (DLTA) (DLTA) (PI)
                 (PI) (SG) (SG) (PI) (PI) (SG) (DLTA) (DLTA) (PI)
                 (PI) (SG) (SG)
 The electronic state is 1-SG.
 Alpha  occ. eigenvalues --   -7.71583  -0.55137  -0.32355
 Alpha virt. eigenvalues --    0.02066   0.02066   0.03011   0.04687   0.07378
 Alpha virt. eigenvalues --    0.07378   0.08701   0.10751   0.14418   0.14418
 Alpha virt. eigenvalues --    0.14450   0.14450   0.18913   0.26277   0.26277
 Alpha virt. eigenvalues --    0.28520   0.29485   0.31201   0.31201   0.36163
 Alpha virt. eigenvalues --    0.45920   0.45920   0.45944   0.45944   0.47861
 Alpha virt. eigenvalues --    0.47861   0.49571   0.49571   0.50744   0.53077
 Alpha virt. eigenvalues --    0.53077   0.58104   0.62690   0.70782   0.70782
 Alpha virt. eigenvalues --    0.86066   0.86066   0.87470   0.89215   0.89215
 Alpha virt. eigenvalues --    0.92803   1.04903   1.04903   1.26606   1.35407
 Alpha virt. eigenvalues --    1.35407   1.35954   1.35954   1.36534   1.36534
 Alpha virt. eigenvalues --    1.37534   1.37534   1.40110   1.40334   1.40334
 Alpha virt. eigenvalues --    1.41798   1.43303   1.43303   1.43603   1.43603
 Alpha virt. eigenvalues --    1.45458   1.45458   1.54181   1.61279   1.61279
 Alpha virt. eigenvalues --    1.61667   1.61667   1.69069   1.81581   1.81581
 Alpha virt. eigenvalues --    1.92081   2.08696   2.09449   2.09449   2.54389
 Alpha virt. eigenvalues --    2.54389   2.65915   2.65915   2.76223   2.76223
 Alpha virt. eigenvalues --    2.82840   3.09008   3.74232   3.74232   3.91172
 Alpha virt. eigenvalues --    3.91172   3.92962   3.92962   3.93690   3.94475
 Alpha virt. eigenvalues --    3.94475   3.95729   3.95729   3.98684   3.98684
 Alpha virt. eigenvalues --    3.99832   4.07692   4.07692   4.08485   4.08485
 Alpha virt. eigenvalues --    4.09576   4.09576   4.20748   4.20748   4.26406
 Alpha virt. eigenvalues --    4.44267   6.60890   6.60890   6.65804   6.65804
 Alpha virt. eigenvalues --    6.76258   6.76258   6.78029   7.66117   8.08218
 Alpha virt. eigenvalues --    8.08218   8.45001   8.47608   8.47608   8.55315
 Alpha virt. eigenvalues --    8.55315   8.69550  13.23142
  Beta  occ. eigenvalues --   -7.70302  -0.49503  -0.43384
  Beta virt. eigenvalues --    0.02406   0.02406   0.03668   0.05518   0.07939
  Beta virt. eigenvalues --    0.07939   0.08853   0.11487   0.14419   0.14419
  Beta virt. eigenvalues --    0.14463   0.14463   0.18826   0.24811   0.24811
  Beta virt. eigenvalues --    0.25874   0.31798   0.31798   0.34885   0.36883
  Beta virt. eigenvalues --    0.45915   0.45915   0.46165   0.46165   0.49536
  Beta virt. eigenvalues --    0.49668   0.49668   0.50475   0.50475   0.53351
  Beta virt. eigenvalues --    0.53351   0.54237   0.62215   0.69721   0.69721
  Beta virt. eigenvalues --    0.80454   0.80454   0.87421   0.88507   0.88507
  Beta virt. eigenvalues --    0.94459   1.05598   1.05598   1.28708   1.35888
  Beta virt. eigenvalues --    1.35888   1.36329   1.36329   1.36505   1.36505
  Beta virt. eigenvalues --    1.40624   1.40624   1.40765   1.40765   1.43333
  Beta virt. eigenvalues --    1.43333   1.43383   1.43890   1.46572   1.46572
  Beta virt. eigenvalues --    1.46856   1.46856   1.55661   1.60658   1.60658
  Beta virt. eigenvalues --    1.62212   1.62212   1.63882   1.80958   1.80958
  Beta virt. eigenvalues --    1.89665   2.07101   2.08524   2.08524   2.50736
  Beta virt. eigenvalues --    2.50736   2.62090   2.62090   2.70547   2.70547
  Beta virt. eigenvalues --    2.80211   3.05514   3.74755   3.74755   3.91194
  Beta virt. eigenvalues --    3.91194   3.93948   3.93948   3.95033   3.95033
  Beta virt. eigenvalues --    3.96511   3.99136   3.99136   4.00239   4.00239
  Beta virt. eigenvalues --    4.03279   4.07873   4.07873   4.10599   4.10599
  Beta virt. eigenvalues --    4.11520   4.11520   4.23595   4.23595   4.29258
  Beta virt. eigenvalues --    4.47534   6.58167   6.58167   6.63143   6.63143
  Beta virt. eigenvalues --    6.73667   6.73667   6.75458   7.58682   8.02811
  Beta virt. eigenvalues --    8.02811   8.40073   8.43621   8.43621   8.51401
  Beta virt. eigenvalues --    8.51401   8.65679  13.24022
          Condensed to atoms (all electrons):
               1          2
     1  B    4.955930   0.008077
     2  H    0.008077   1.027916
          Atomic-Atomic Spin Densities.
               1          2
     1  B    0.919677   0.044862
     2  H    0.044862  -1.009401
 Mulliken charges and spin densities:
               1          2
     1  B    0.035993   0.964539
     2  H   -0.035993  -0.964539
 Sum of Mulliken charges =   0.00000  -0.00000
 Mulliken charges and spin densities with hydrogens summed into heavy atoms:
               1          2
     1  B    0.000000  -0.000000
 Electronic spatial extent (au):  <R**2>=             39.6133
 Charge=              0.0000 electrons
 Dipole moment (field-independent basis, Debye):
    X=              0.0000    Y=              0.0000    Z=              0.4550  Tot=              0.4550
 Quadrupole moment (field-independent basis, Debye-Ang):
   XX=             -7.3150   YY=             -7.3150   ZZ=            -11.5932
   XY=              0.0000   XZ=              0.0000   YZ=              0.0000
 Traceless Quadrupole moment (field-independent basis, Debye-Ang):
   XX=              1.4261   YY=              1.4261   ZZ=             -2.8521
   XY=              0.0000   XZ=              0.0000   YZ=              0.0000
 Octapole moment (field-independent basis, Debye-Ang**2):
  XXX=              0.0000  YYY=              0.0000  ZZZ=             -0.0087  XYY=              0.0000
  XXY=              0.0000  XXZ=              0.6310  XZZ=              0.0000  YZZ=              0.0000
  YYZ=              0.6310  XYZ=              0.0000
 Hexadecapole moment (field-independent basis, Debye-Ang**3):
 XXXX=            -10.6897 YYYY=            -10.6897 ZZZZ=            -77.7096 XXXY=              0.0000
 XXXZ=              0.0000 YYYX=              0.0000 YYYZ=              0.0000 ZZZX=              0.0000
 ZZZY=              0.0000 XXYY=             -3.5632 XXZZ=            -13.3707 YYZZ=            -13.3707
 XXYZ=              0.0000 YYXZ=              0.0000 ZZXY=              0.0000
 N-N= 1.017648482538D+00 E-N=-5.989378837011D+01  KE= 2.500782639371D+01
 Symmetry A1   KE= 2.500782639371D+01
 Symmetry A2   KE= 0.000000000000D+00
 Symmetry B1   KE= 0.000000000000D+00
 Symmetry B2   KE= 0.000000000000D+00
 Symmetry A1   SP=-8.212504615253D-15
 Symmetry A2   SP= 0.000000000000D+00
 Symmetry B1   SP= 0.000000000000D+00
 Symmetry B2   SP= 0.000000000000D+00
                          Isotropic Fermi Contact Couplings
        Atom                 a.u.       MegaHertz       Gauss      10(-4) cm-1
     1  B(11)             -0.04729     -33.91623     -12.10216     -11.31324
     2  H(1)              -0.28320    -632.92526    -225.84347    -211.12114
 --------------------------------------------------------
       Center         ----  Spin Dipole Couplings  ----
                      3XX-RR        3YY-RR        3ZZ-RR
 --------------------------------------------------------
     1   Atom       -0.302620     -0.302620      0.605241
     2   Atom       -0.014193     -0.014193      0.028386
 --------------------------------------------------------
                        XY            XZ            YZ
 --------------------------------------------------------
     1   Atom        0.000000      0.000000      0.000000
     2   Atom        0.000000      0.000000      0.000000
 --------------------------------------------------------


 ---------------------------------------------------------------------------------
              Anisotropic Spin Dipole Couplings in Principal Axis System
 ---------------------------------------------------------------------------------

       Atom             a.u.   MegaHertz   Gauss  10(-4) cm-1        Axes

              Baa    -0.3026   -51.813   -18.488   -17.283 -0.0000  1.0000  0.0000
     1 B(11)  Bbb    -0.3026   -51.813   -18.488   -17.283  1.0000  0.0000  0.0000
              Bcc     0.6052   103.626    36.976    34.566  0.0000  0.0000  1.0000
 
              Baa    -0.0142    -7.573    -2.702    -2.526 -0.0000  1.0000  0.0000
     2 H(1)   Bbb    -0.0142    -7.573    -2.702    -2.526  1.0000  0.0000  0.0000
              Bcc     0.0284    15.145     5.404     5.052  0.0000  0.0000  1.0000
 

 ---------------------------------------------------------------------------------

 No NMR shielding tensors so no spin-rotation constants.
 Leave Link  601 at Sun May 22 18:31:12 2022, MaxMem=   104857600 cpu:               0.2 elap:               0.2
 (Enter /apps/software/g16/l9999.exe)
 1\1\GINC-CNODE15\Stability\UHF\Aug-CC-pVQZ\B1H1\LCZ\22-May-2022\0\\#p 
 UHF/aug-cc-pVQZ guess=mix stable=opt\\BH UHF at 2.6 Angstrom\\0,1\B,0,
 0.,0.,0.\H,0,2.6,0.,0.\\Version=ES64L-G16RevA.03\State=1-SG\HF=-25.036
 652\S2=0.884051\S2-1=0.\S2A=0.062047\RMSD=6.186e-09\Dipole=-0.179025,0
 .,0.\Quadrupole=-2.1204981,1.060249,1.060249,0.,0.,0.\PG=C*V [C*(H1B1)
 ]\\@


 A people that values its privileges above its principles soon loses both.
 -- Dwight D. Eisenhower
 Job cpu time:       0 days  0 hours  0 minutes 18.4 seconds.
 Elapsed time:       0 days  0 hours  0 minutes 18.4 seconds.
 File lengths (MBytes):  RWF=     33 Int=      0 D2E=      0 Chk=      4 Scr=      1
 Normal termination of Gaussian 16 at Sun May 22 18:31:12 2022.

Sender: Unischeduler System <lcz@mgt01>
Subject: Job 134189: <#!/bin/bash
#BSUB -J intel
#BSUB -o BH-2.6-UHF-G.out
#BSUB -n 8
#BSUB -q cqueue
#BSUB -R span[hosts=1]
export g16root=/apps/software
source /apps/software/g16/bsd/g16.profile
export GAUSS_SCRDIR=/scratch
/apps/software/g16/g16 < BH-2.6-UHF-G.inp > BH-2.6-UHF-G.out> Done

Job <#!/bin/bash
#BSUB -J intel
#BSUB -o BH-2.6-UHF-G.out
#BSUB -n 8
#BSUB -q cqueue
#BSUB -R span[hosts=1]
export g16root=/apps/software
source /apps/software/g16/bsd/g16.profile
export GAUSS_SCRDIR=/scratch
/apps/software/g16/g16 < BH-2.6-UHF-G.inp > BH-2.6-UHF-G.out> was submitted from host <mgt01> by user <lcz>.
Job was executed on host(s) <8*cnode15>, in queue <cqueue>, as user <lcz>.
</apps/users/lcz> was used as the home directory.
</apps/users/lcz/exe13/UCCSD> was used as the working directory.
Started at 2022-05-22 18:30:53
Results reported at 2022-05-22 18:31:12

Your job looked like:

------------------------------------------------------------
# User input
#!/bin/bash
#BSUB -J intel
#BSUB -o BH-2.6-UHF-G.out
#BSUB -n 8
#BSUB -q cqueue
#BSUB -R span[hosts=1]
export g16root=/apps/software
source /apps/software/g16/bsd/g16.profile
export GAUSS_SCRDIR=/scratch
/apps/software/g16/g16 < BH-2.6-UHF-G.inp > BH-2.6-UHF-G.out
------------------------------------------------------------

Successfully completed.

Resource usage summary:

    CPU time   :           12.47 sec.
    Max Memory :               476 MB
    Max Processes  :               5


The output (if any) follows:

