 Entering Gaussian System, Link 0=/apps/software/g16/g16
 Initial command:
 /apps/software/g16/l1.exe "/scratch/Gau-283912.inp" -scrdir="/scratch/"
 Entering Link 1 = /apps/software/g16/l1.exe PID=    283913.
  
 Copyright (c) 1988,1990,1992,1993,1995,1998,2003,2009,2016,
            Gaussian, Inc.  All Rights Reserved.
  
 This is part of the Gaussian(R) 16 program.  It is based on
 the Gaussian(R) 09 system (copyright 2009, Gaussian, Inc.),
 the Gaussian(R) 03 system (copyright 2003, Gaussian, Inc.),
 the Gaussian(R) 98 system (copyright 1998, Gaussian, Inc.),
 the Gaussian(R) 94 system (copyright 1995, Gaussian, Inc.),
 the Gaussian 92(TM) system (copyright 1992, Gaussian, Inc.),
 the Gaussian 90(TM) system (copyright 1990, Gaussian, Inc.),
 the Gaussian 88(TM) system (copyright 1988, Gaussian, Inc.),
 the Gaussian 86(TM) system (copyright 1986, Carnegie Mellon
 University), and the Gaussian 82(TM) system (copyright 1983,
 Carnegie Mellon University). Gaussian is a federally registered
 trademark of Gaussian, Inc.
  
 This software contains proprietary and confidential information,
 including trade secrets, belonging to Gaussian, Inc.
  
 This software is provided under written license and may be
 used, copied, transmitted, or stored only in accord with that
 written license.
  
 The following legend is applicable only to US Government
 contracts under FAR:
  
                    RESTRICTED RIGHTS LEGEND
  
 Use, reproduction and disclosure by the US Government is
 subject to restrictions as set forth in subparagraphs (a)
 and (c) of the Commercial Computer Software - Restricted
 Rights clause in FAR 52.227-19.
  
 Gaussian, Inc.
 340 Quinnipiac St., Bldg. 40, Wallingford CT 06492
  
  
 ---------------------------------------------------------------
 Warning -- This program may not be used in any manner that
 competes with the business of Gaussian, Inc. or will provide
 assistance to any competitor of Gaussian, Inc.  The licensee
 of this program is prohibited from giving any competitor of
 Gaussian, Inc. access to this program.  By using this program,
 the user acknowledges that Gaussian, Inc. is engaged in the
 business of creating and licensing software in the field of
 computational chemistry and represents and warrants to the
 licensee that it is not a competitor of Gaussian, Inc. and that
 it will not use this program in any manner prohibited above.
 ---------------------------------------------------------------
  

 Cite this work as:
 Gaussian 16, Revision A.03,
 M. J. Frisch, G. W. Trucks, H. B. Schlegel, G. E. Scuseria, 
 M. A. Robb, J. R. Cheeseman, G. Scalmani, V. Barone, 
 G. A. Petersson, H. Nakatsuji, X. Li, M. Caricato, A. V. Marenich, 
 J. Bloino, B. G. Janesko, R. Gomperts, B. Mennucci, H. P. Hratchian, 
 J. V. Ortiz, A. F. Izmaylov, J. L. Sonnenberg, D. Williams-Young, 
 F. Ding, F. Lipparini, F. Egidi, J. Goings, B. Peng, A. Petrone, 
 T. Henderson, D. Ranasinghe, V. G. Zakrzewski, J. Gao, N. Rega, 
 G. Zheng, W. Liang, M. Hada, M. Ehara, K. Toyota, R. Fukuda, 
 J. Hasegawa, M. Ishida, T. Nakajima, Y. Honda, O. Kitao, H. Nakai, 
 T. Vreven, K. Throssell, J. A. Montgomery, Jr., J. E. Peralta, 
 F. Ogliaro, M. J. Bearpark, J. J. Heyd, E. N. Brothers, K. N. Kudin, 
 V. N. Staroverov, T. A. Keith, R. Kobayashi, J. Normand, 
 K. Raghavachari, A. P. Rendell, J. C. Burant, S. S. Iyengar, 
 J. Tomasi, M. Cossi, J. M. Millam, M. Klene, C. Adamo, R. Cammi, 
 J. W. Ochterski, R. L. Martin, K. Morokuma, O. Farkas, 
 J. B. Foresman, and D. J. Fox, Gaussian, Inc., Wallingford CT, 2016.
 
 ******************************************
 Gaussian 16:  ES64L-G16RevA.03 25-Dec-2016
                22-May-2022 
 ******************************************
 %chk=BH-2.2-UHF-G.chk
 ---------------------------------------
 #p UHF/aug-cc-pVQZ guess=mix stable=opt
 ---------------------------------------
 1/38=1,172=1/1;
 2/12=2,17=6,18=5,40=1/2;
 3/5=16,6=2,7=10,11=2,25=1,30=1,116=2/1,2,3;
 4/13=-1/1;
 5/5=2,38=5/2;
 6/7=2,8=2,9=2,10=2,28=1/1;
 8/6=1,10=90,11=11/1;
 9/8=-3,42=1,46=1/14;
 5/5=2,8=3,17=40,38=5/8(-2);
 6/7=2,8=2,9=2,10=2,28=1/1;
 99/5=1,9=1/99;
 Leave Link    1 at Sun May 22 18:34:56 2022, MaxMem=           0 cpu:               0.0 elap:               0.0
 (Enter /apps/software/g16/l101.exe)
 ----------------------
 BH UHF at 2.2 Angstrom
 ----------------------
 Symbolic Z-matrix:
 Charge =  0 Multiplicity = 1
 B                     0.        0.        0. 
 H                     2.2       0.        0. 
 
 ITRead=  0  0
 MicOpt= -1 -1
 NAtoms=      2 NQM=        2 NQMF=       0 NMMI=      0 NMMIF=      0
                NMic=       0 NMicF=      0.
                    Isotopes and Nuclear Properties:
 (Nuclear quadrupole moments (NQMom) in fm**2, nuclear magnetic moments (NMagM)
  in nuclear magnetons)

  Atom         1           2
 IAtWgt=          11           1
 AtmWgt=  11.0093053   1.0078250
 NucSpn=           3           1
 AtZEff=  -0.0000000  -0.0000000
 NQMom=    4.0590000   0.0000000
 NMagM=    2.6886370   2.7928460
 AtZNuc=   5.0000000   1.0000000
 Leave Link  101 at Sun May 22 18:34:56 2022, MaxMem=   104857600 cpu:               0.1 elap:               0.1
 (Enter /apps/software/g16/l202.exe)
                          Input orientation:                          
 ---------------------------------------------------------------------
 Center     Atomic      Atomic             Coordinates (Angstroms)
 Number     Number       Type             X           Y           Z
 ---------------------------------------------------------------------
      1          5           0        0.000000    0.000000    0.000000
      2          1           0        2.200000    0.000000    0.000000
 ---------------------------------------------------------------------
 Stoichiometry    BH
 Framework group  C*V[C*(HB)]
 Deg. of freedom     1
 Full point group                 C*V     NOp   4
 Largest Abelian subgroup         C2V     NOp   4
 Largest concise Abelian subgroup C1      NOp   1
                         Standard orientation:                         
 ---------------------------------------------------------------------
 Center     Atomic      Atomic             Coordinates (Angstroms)
 Number     Number       Type             X           Y           Z
 ---------------------------------------------------------------------
      1          5           0        0.000000    0.000000    0.366667
      2          1           0        0.000000    0.000000   -1.833333
 ---------------------------------------------------------------------
 Rotational constants (GHZ):           0.0000000         113.0908715         113.0908715
 Leave Link  202 at Sun May 22 18:34:56 2022, MaxMem=   104857600 cpu:               0.0 elap:               0.0
 (Enter /apps/software/g16/l301.exe)
 Standard basis: Aug-CC-pVQZ (5D, 7F)
 Ernie: Thresh=  0.10000D-02 Tol=  0.10000D-05 Strict=F.
 Ernie:  4 primitive shells out of 54 were deleted.
 There are    68 symmetry adapted cartesian basis functions of A1  symmetry.
 There are    18 symmetry adapted cartesian basis functions of A2  symmetry.
 There are    37 symmetry adapted cartesian basis functions of B1  symmetry.
 There are    37 symmetry adapted cartesian basis functions of B2  symmetry.
 There are    50 symmetry adapted basis functions of A1  symmetry.
 There are    16 symmetry adapted basis functions of A2  symmetry.
 There are    30 symmetry adapted basis functions of B1  symmetry.
 There are    30 symmetry adapted basis functions of B2  symmetry.
   126 basis functions,   180 primitive gaussians,   160 cartesian basis functions
     3 alpha electrons        3 beta electrons
       nuclear repulsion energy         1.2026754794 Hartrees.
 IExCor=    0 DFT=F Ex=HF Corr=None ExCW=0 ScaHFX=  1.000000
 ScaDFX=  1.000000  1.000000  1.000000  1.000000 ScalE2=  1.000000  1.000000
 IRadAn=      5 IRanWt=     -1 IRanGd=            0 ICorTp=0 IEmpDi=  4
 NAtoms=    2 NActive=    2 NUniq=    2 SFac= 1.00D+00 NAtFMM=   60 NAOKFM=F Big=F
 Integral buffers will be    131072 words long.
 Raffenetti 2 integral format.
 Two-electron integral symmetry is turned on.
 Leave Link  301 at Sun May 22 18:34:56 2022, MaxMem=   104857600 cpu:               0.1 elap:               0.1
 (Enter /apps/software/g16/l302.exe)
 NPDir=0 NMtPBC=     1 NCelOv=     1 NCel=       1 NClECP=     1 NCelD=      1
         NCelK=      1 NCelE2=     1 NClLst=     1 CellRange=     0.0.
 One-electron integrals computed using PRISM.
 One-electron integral symmetry used in STVInt
 NBasis=   126 RedAO= T EigKep=  7.12D-04  NBF=    50    16    30    30
 NBsUse=   126 1.00D-06 EigRej= -1.00D+00 NBFU=    50    16    30    30
 Leave Link  302 at Sun May 22 18:34:56 2022, MaxMem=   104857600 cpu:               0.1 elap:               0.1
 (Enter /apps/software/g16/l303.exe)
 DipDrv:  MaxL=1.
 Leave Link  303 at Sun May 22 18:34:56 2022, MaxMem=   104857600 cpu:               0.0 elap:               0.0
 (Enter /apps/software/g16/l401.exe)
 ExpMin= 1.88D-02 ExpMax= 2.39D+04 ExpMxC= 2.30D+02 IAcc=3 IRadAn=         5 AccDes= 0.00D+00
 Harris functional with IExCor=  205 and IRadAn=       5 diagonalized for initial guess.
 HarFok:  IExCor=  205 AccDes= 0.00D+00 IRadAn=         5 IDoV= 1 UseB2=F ITyADJ=14
 ICtDFT=  3500011 ScaDFX=  1.000000  1.000000  1.000000  1.000000
 FoFCou: FMM=F IPFlag=           0 FMFlag=      100000 FMFlg1=           0
         NFxFlg=           0 DoJE=T BraDBF=F KetDBF=T FulRan=T
         wScrn=  0.000000 ICntrl=       500 IOpCl=  0 I1Cent=   200000004 NGrid=           0
         NMat0=    1 NMatS0=      1 NMatT0=    0 NMatD0=    1 NMtDS0=    0 NMtDT0=    0
 Petite list used in FoFCou.
 Harris En= -25.0261755171683    
 JPrj=0 DoOrth=F DoCkMO=T.
 Mixing orbitals, IMix= 1 IMixAn=  0 NRI=1 NE=    3 Coef=  7.07106781D-01  7.07106781D-01
 Mixing orbitals, IMix= 1 IMixAn=  0 NRI=1 NE=    3 Coef= -7.07106781D-01  7.07106781D-01
 Initial guess orbital symmetries:
 Alpha Orbitals:
       Occupied  (SG) (SG) (?A)
       Virtual   (?A) (?A) (SG) (SG) (SG) (PI) (PI) (SG) (PI) (PI)
                 (DLTA) (DLTA) (SG) (PI) (PI) (SG) (PI) (PI) (SG)
                 (SG) (PI) (PI) (DLTA) (DLTA) (DLTA) (DLTA) (PHI)
                 (PHI) (SG) (PI) (PI) (SG) (SG) (DLTA) (DLTA) (PI)
                 (PI) (SG) (PI) (PI) (SG) (PI) (PI) (SG) (PI) (PI)
                 (PHI) (PHI) (DLTA) (DLTA) (DLTA) (DLTA) (SG) (?B)
                 (?B) (PHI) (PHI) (SG) (PI) (PI) (DLTA) (DLTA)
                 (SG) (PHI) (PHI) (SG) (PI) (PI) (SG) (DLTA) (DLTA)
                 (SG) (PI) (PI) (DLTA) (DLTA) (PI) (PI) (PI) (PI)
                 (SG) (SG) (PI) (PI) (SG) (DLTA) (DLTA) (PI) (PI)
                 (?B) (?B) (PHI) (PHI) (SG) (DLTA) (DLTA) (PHI)
                 (PHI) (DLTA) (DLTA) (PI) (PI) (PI) (PI) (SG) (SG)
                 (PHI) (PHI) (DLTA) (DLTA) (PI) (PI) (SG) (SG)
                 (PI) (PI) (DLTA) (DLTA) (SG) (PI) (PI) (SG) (SG)
 Beta  Orbitals:
       Occupied  (SG) (SG) (?A)
       Virtual   (?A) (?A) (SG) (SG) (SG) (PI) (PI) (SG) (PI) (PI)
                 (DLTA) (DLTA) (SG) (PI) (PI) (SG) (PI) (PI) (SG)
                 (SG) (PI) (PI) (DLTA) (DLTA) (DLTA) (DLTA) (PHI)
                 (PHI) (SG) (PI) (PI) (SG) (SG) (DLTA) (DLTA) (PI)
                 (PI) (SG) (PI) (PI) (SG) (PI) (PI) (SG) (PI) (PI)
                 (PHI) (PHI) (DLTA) (DLTA) (DLTA) (DLTA) (SG) (?B)
                 (?B) (PHI) (PHI) (SG) (PI) (PI) (DLTA) (DLTA)
                 (SG) (PHI) (PHI) (SG) (PI) (PI) (SG) (DLTA) (DLTA)
                 (SG) (PI) (PI) (DLTA) (DLTA) (PI) (PI) (PI) (PI)
                 (SG) (SG) (PI) (PI) (SG) (DLTA) (DLTA) (PI) (PI)
                 (?B) (?B) (PHI) (PHI) (SG) (DLTA) (DLTA) (PHI)
                 (PHI) (DLTA) (DLTA) (PI) (PI) (PI) (PI) (SG) (SG)
                 (PHI) (PHI) (DLTA) (DLTA) (PI) (PI) (SG) (SG)
                 (PI) (PI) (DLTA) (DLTA) (SG) (PI) (PI) (SG) (SG)
 Initial guess <Sx>= 0.0000 <Sy>= 0.0000 <Sz>= 0.0000 <S**2>= 1.0000 S= 0.6180
 Leave Link  401 at Sun May 22 18:34:56 2022, MaxMem=   104857600 cpu:               0.2 elap:               0.2
 (Enter /apps/software/g16/l502.exe)
 Keep R1 and R2 ints in memory in symmetry-blocked form, NReq=40143665.
 FoFCou: FMM=F IPFlag=           0 FMFlag=           0 FMFlg1=           0
         NFxFlg=           0 DoJE=F BraDBF=F KetDBF=F FulRan=T
         wScrn=  0.000000 ICntrl=       600 IOpCl=  0 I1Cent=           0 NGrid=           0
         NMat0=    1 NMatS0=   8001 NMatT0=    0 NMatD0=    1 NMtDS0=    0 NMtDT0=    0
 Petite list used in FoFCou.
 UHF open shell SCF:
 Using DIIS extrapolation, IDIIS=  1040.
 NGot=   104857600 LenX=    88563632 LenY=    88537591
 Requested convergence on RMS density matrix=1.00D-08 within 128 cycles.
 Requested convergence on MAX density matrix=1.00D-06.
 Requested convergence on             energy=1.00D-06.
 No special actions if energy rises.
 An orbital has undefined symmetry, so N**3 symmetry is turned off.

 Cycle   1  Pass 1  IDiag  1:
 Density matrix breaks symmetry, PCut= 1.00D-07
 Density matrix has no symmetry -- integrals replicated.
 E= -24.9330283062649    
 DIIS: error= 3.69D-02 at cycle   1 NSaved=   1.
 NSaved= 1 IEnMin= 1 EnMin= -24.9330283062649     IErMin= 1 ErrMin= 3.69D-02
 ErrMax= 3.69D-02  0.00D+00 EMaxC= 1.00D-01 BMatC= 1.66D-01 BMatP= 1.66D-01
 IDIUse=3 WtCom= 6.31D-01 WtEn= 3.69D-01
 Coeff-Com:  0.100D+01
 Coeff-En:   0.100D+01
 Coeff:      0.100D+01
 Gap=     0.302 Goal=   None    Shift=    0.000
 Gap=     0.302 Goal=   None    Shift=    0.000
 GapD=    0.302 DampG=1.000 DampE=0.500 DampFc=0.5000 IDamp=-1.
 Damping current iteration by 5.00D-01
 RMSDP=1.16D-03 MaxDP=3.35D-02              OVMax= 2.26D-01

 Cycle   2  Pass 1  IDiag  1:
 Density matrix breaks symmetry, PCut= 1.00D-07
 Density matrix has no symmetry -- integrals replicated.
 E= -24.9600308956011     Delta-E=       -0.027002589336 Rises=F Damp=T
 DIIS: error= 2.07D-02 at cycle   2 NSaved=   2.
 NSaved= 2 IEnMin= 2 EnMin= -24.9600308956011     IErMin= 2 ErrMin= 2.07D-02
 ErrMax= 2.07D-02  0.00D+00 EMaxC= 1.00D-01 BMatC= 5.73D-02 BMatP= 1.66D-01
 IDIUse=3 WtCom= 7.93D-01 WtEn= 2.07D-01
 Coeff-Com: -0.115D+01 0.215D+01
 Coeff-En:   0.000D+00 0.100D+01
 Coeff:     -0.911D+00 0.191D+01
 Gap=     0.321 Goal=   None    Shift=    0.000
 Gap=     0.321 Goal=   None    Shift=    0.000
 RMSDP=1.16D-03 MaxDP=3.89D-02 DE=-2.70D-02 OVMax= 1.06D-01

 Cycle   3  Pass 1  IDiag  1:
 Density matrix breaks symmetry, PCut= 1.00D-07
 Density matrix has no symmetry -- integrals replicated.
 E= -25.0135484932864     Delta-E=       -0.053517597685 Rises=F Damp=F
 DIIS: error= 7.13D-03 at cycle   3 NSaved=   3.
 NSaved= 3 IEnMin= 3 EnMin= -25.0135484932864     IErMin= 3 ErrMin= 7.13D-03
 ErrMax= 7.13D-03  0.00D+00 EMaxC= 1.00D-01 BMatC= 4.11D-03 BMatP= 5.73D-02
 IDIUse=3 WtCom= 9.29D-01 WtEn= 7.13D-02
 Coeff-Com:  0.309D+00-0.652D+00 0.134D+01
 Coeff-En:   0.000D+00 0.000D+00 0.100D+01
 Coeff:      0.287D+00-0.605D+00 0.132D+01
 Gap=     0.341 Goal=   None    Shift=    0.000
 Gap=     0.341 Goal=   None    Shift=    0.000
 RMSDP=4.72D-04 MaxDP=1.19D-02 DE=-5.35D-02 OVMax= 9.30D-02

 Cycle   4  Pass 1  IDiag  1:
 Density matrix breaks symmetry, PCut= 1.00D-07
 Density matrix has no symmetry -- integrals replicated.
 E= -25.0222731676603     Delta-E=       -0.008724674374 Rises=F Damp=F
 DIIS: error= 4.22D-03 at cycle   4 NSaved=   4.
 NSaved= 4 IEnMin= 4 EnMin= -25.0222731676603     IErMin= 4 ErrMin= 4.22D-03
 ErrMax= 4.22D-03  0.00D+00 EMaxC= 1.00D-01 BMatC= 1.20D-03 BMatP= 4.11D-03
 IDIUse=3 WtCom= 9.58D-01 WtEn= 4.22D-02
 Coeff-Com: -0.951D-01 0.190D+00-0.876D+00 0.178D+01
 Coeff-En:   0.000D+00 0.000D+00 0.000D+00 0.100D+01
 Coeff:     -0.911D-01 0.182D+00-0.839D+00 0.175D+01
 Gap=     0.345 Goal=   None    Shift=    0.000
 Gap=     0.345 Goal=   None    Shift=    0.000
 RMSDP=3.53D-04 MaxDP=9.30D-03 DE=-8.72D-03 OVMax= 8.06D-02

 Cycle   5  Pass 1  IDiag  1:
 Density matrix breaks symmetry, PCut= 1.00D-07
 Density matrix has no symmetry -- integrals replicated.
 E= -25.0259838362548     Delta-E=       -0.003710668594 Rises=F Damp=F
 DIIS: error= 2.79D-03 at cycle   5 NSaved=   5.
 NSaved= 5 IEnMin= 5 EnMin= -25.0259838362548     IErMin= 5 ErrMin= 2.79D-03
 ErrMax= 2.79D-03  0.00D+00 EMaxC= 1.00D-01 BMatC= 3.25D-04 BMatP= 1.20D-03
 IDIUse=3 WtCom= 9.72D-01 WtEn= 2.79D-02
 Coeff-Com: -0.751D-01 0.136D+00 0.467D+00-0.157D+01 0.205D+01
 Coeff-En:   0.000D+00 0.000D+00 0.000D+00 0.000D+00 0.100D+01
 Coeff:     -0.730D-01 0.132D+00 0.454D+00-0.153D+01 0.202D+01
 Gap=     0.340 Goal=   None    Shift=    0.000
 Gap=     0.340 Goal=   None    Shift=    0.000
 RMSDP=1.97D-04 MaxDP=5.01D-03 DE=-3.71D-03 OVMax= 4.44D-02

 Cycle   6  Pass 1  IDiag  1:
 Density matrix breaks symmetry, PCut= 1.00D-07
 Density matrix has no symmetry -- integrals replicated.
 E= -25.0270150895559     Delta-E=       -0.001031253301 Rises=F Damp=F
 DIIS: error= 9.72D-04 at cycle   6 NSaved=   6.
 NSaved= 6 IEnMin= 6 EnMin= -25.0270150895559     IErMin= 6 ErrMin= 9.72D-04
 ErrMax= 9.72D-04  0.00D+00 EMaxC= 1.00D-01 BMatC= 9.20D-05 BMatP= 3.25D-04
 IDIUse=3 WtCom= 9.90D-01 WtEn= 9.72D-03
 Coeff-Com:  0.124D+00-0.238D+00 0.166D+00-0.804D-01-0.565D+00 0.159D+01
 Coeff-En:   0.000D+00 0.000D+00 0.000D+00 0.000D+00 0.000D+00 0.100D+01
 Coeff:      0.123D+00-0.235D+00 0.164D+00-0.796D-01-0.559D+00 0.159D+01
 Gap=     0.339 Goal=   None    Shift=    0.000
 Gap=     0.339 Goal=   None    Shift=    0.000
 RMSDP=1.47D-04 MaxDP=3.60D-03 DE=-1.03D-03 OVMax= 3.25D-02

 Cycle   7  Pass 1  IDiag  1:
 Density matrix breaks symmetry, PCut= 1.00D-07
 Density matrix has no symmetry -- integrals replicated.
 E= -25.0273494469937     Delta-E=       -0.000334357438 Rises=F Damp=F
 DIIS: error= 7.32D-04 at cycle   7 NSaved=   7.
 NSaved= 7 IEnMin= 7 EnMin= -25.0273494469937     IErMin= 7 ErrMin= 7.32D-04
 ErrMax= 7.32D-04  0.00D+00 EMaxC= 1.00D-01 BMatC= 3.53D-05 BMatP= 9.20D-05
 IDIUse=3 WtCom= 9.93D-01 WtEn= 7.32D-03
 Coeff-Com:  0.120D-01-0.228D-01-0.118D+00 0.451D+00-0.621D+00 0.123D+00
 Coeff-Com:  0.118D+01
 Coeff-En:   0.000D+00 0.000D+00 0.000D+00 0.000D+00 0.000D+00 0.000D+00
 Coeff-En:   0.100D+01
 Coeff:      0.119D-01-0.226D-01-0.117D+00 0.447D+00-0.616D+00 0.123D+00
 Coeff:      0.117D+01
 Gap=     0.338 Goal=   None    Shift=    0.000
 Gap=     0.338 Goal=   None    Shift=    0.000
 RMSDP=5.25D-05 MaxDP=1.80D-03 DE=-3.34D-04 OVMax= 7.46D-03

 Cycle   8  Pass 1  IDiag  1:
 Density matrix breaks symmetry, PCut= 1.00D-07
 Density matrix has no symmetry -- integrals replicated.
 E= -25.0274289767446     Delta-E=       -0.000079529751 Rises=F Damp=F
 DIIS: error= 5.65D-04 at cycle   8 NSaved=   8.
 NSaved= 8 IEnMin= 8 EnMin= -25.0274289767446     IErMin= 8 ErrMin= 5.65D-04
 ErrMax= 5.65D-04  0.00D+00 EMaxC= 1.00D-01 BMatC= 1.84D-05 BMatP= 3.53D-05
 IDIUse=3 WtCom= 9.94D-01 WtEn= 5.65D-03
 Coeff-Com: -0.227D-03 0.123D-02 0.172D+00-0.621D+00 0.907D+00-0.287D+00
 Coeff-Com: -0.282D+01 0.365D+01
 Coeff-En:   0.000D+00 0.000D+00 0.000D+00 0.000D+00 0.000D+00 0.000D+00
 Coeff-En:   0.000D+00 0.100D+01
 Coeff:     -0.226D-03 0.122D-02 0.171D+00-0.618D+00 0.902D+00-0.285D+00
 Coeff:     -0.281D+01 0.363D+01
 Gap=     0.336 Goal=   None    Shift=    0.000
 Gap=     0.336 Goal=   None    Shift=    0.000
 RMSDP=1.08D-04 MaxDP=4.30D-03 DE=-7.95D-05 OVMax= 1.38D-02

 Cycle   9  Pass 1  IDiag  1:
 Density matrix breaks symmetry, PCut= 1.00D-07
 Density matrix has no symmetry -- integrals replicated.
 E= -25.0275302424656     Delta-E=       -0.000101265721 Rises=F Damp=F
 DIIS: error= 2.76D-04 at cycle   9 NSaved=   9.
 NSaved= 9 IEnMin= 9 EnMin= -25.0275302424656     IErMin= 9 ErrMin= 2.76D-04
 ErrMax= 2.76D-04  0.00D+00 EMaxC= 1.00D-01 BMatC= 5.11D-06 BMatP= 1.84D-05
 IDIUse=3 WtCom= 9.97D-01 WtEn= 2.76D-03
 Coeff-Com:  0.317D-02-0.716D-02-0.846D-01 0.339D+00-0.633D+00 0.465D+00
 Coeff-Com:  0.231D+01-0.416D+01 0.277D+01
 Coeff-En:   0.000D+00 0.000D+00 0.000D+00 0.000D+00 0.000D+00 0.000D+00
 Coeff-En:   0.000D+00 0.000D+00 0.100D+01
 Coeff:      0.317D-02-0.714D-02-0.844D-01 0.338D+00-0.631D+00 0.464D+00
 Coeff:      0.231D+01-0.415D+01 0.276D+01
 Gap=     0.336 Goal=   None    Shift=    0.000
 Gap=     0.336 Goal=   None    Shift=    0.000
 RMSDP=8.71D-05 MaxDP=3.75D-03 DE=-1.01D-04 OVMax= 1.17D-02

 Cycle  10  Pass 1  IDiag  1:
 Density matrix breaks symmetry, PCut= 1.00D-07
 Density matrix has no symmetry -- integrals replicated.
 E= -25.0275620476843     Delta-E=       -0.000031805219 Rises=F Damp=F
 DIIS: error= 4.86D-05 at cycle  10 NSaved=  10.
 NSaved=10 IEnMin=10 EnMin= -25.0275620476843     IErMin=10 ErrMin= 4.86D-05
 ErrMax= 4.86D-05  0.00D+00 EMaxC= 1.00D-01 BMatC= 2.36D-07 BMatP= 5.11D-06
 IDIUse=1 WtCom= 1.00D+00 WtEn= 0.00D+00
 Coeff-Com:  0.428D-03-0.542D-03 0.169D-01-0.715D-01 0.132D+00-0.831D-01
 Coeff-Com: -0.705D+00 0.124D+01-0.992D+00 0.146D+01
 Coeff:      0.428D-03-0.542D-03 0.169D-01-0.715D-01 0.132D+00-0.831D-01
 Coeff:     -0.705D+00 0.124D+01-0.992D+00 0.146D+01
 Gap=     0.336 Goal=   None    Shift=    0.000
 Gap=     0.336 Goal=   None    Shift=    0.000
 RMSDP=1.61D-05 MaxDP=6.46D-04 DE=-3.18D-05 OVMax= 1.99D-03

 Cycle  11  Pass 1  IDiag  1:
 Density matrix breaks symmetry, PCut= 1.00D-07
 Density matrix has no symmetry -- integrals replicated.
 E= -25.0275630128269     Delta-E=       -0.000000965143 Rises=F Damp=F
 DIIS: error= 6.32D-06 at cycle  11 NSaved=  11.
 NSaved=11 IEnMin=11 EnMin= -25.0275630128269     IErMin=11 ErrMin= 6.32D-06
 ErrMax= 6.32D-06  0.00D+00 EMaxC= 1.00D-01 BMatC= 4.04D-09 BMatP= 2.36D-07
 IDIUse=1 WtCom= 1.00D+00 WtEn= 0.00D+00
 Coeff-Com:  0.109D-03-0.271D-03-0.376D-02 0.159D-01-0.282D-01 0.172D-01
 Coeff-Com:  0.140D+00-0.252D+00 0.209D+00-0.418D+00 0.132D+01
 Coeff:      0.109D-03-0.271D-03-0.376D-02 0.159D-01-0.282D-01 0.172D-01
 Coeff:      0.140D+00-0.252D+00 0.209D+00-0.418D+00 0.132D+01
 Gap=     0.336 Goal=   None    Shift=    0.000
 Gap=     0.336 Goal=   None    Shift=    0.000
 RMSDP=2.26D-06 MaxDP=8.99D-05 DE=-9.65D-07 OVMax= 2.88D-04

 Cycle  12  Pass 1  IDiag  1:
 Density matrix breaks symmetry, PCut= 1.00D-07
 Density matrix has no symmetry -- integrals replicated.
 E= -25.0275630300149     Delta-E=       -0.000000017188 Rises=F Damp=F
 DIIS: error= 6.78D-07 at cycle  12 NSaved=  12.
 NSaved=12 IEnMin=12 EnMin= -25.0275630300149     IErMin=12 ErrMin= 6.78D-07
 ErrMax= 6.78D-07  0.00D+00 EMaxC= 1.00D-01 BMatC= 6.78D-11 BMatP= 4.04D-09
 IDIUse=1 WtCom= 1.00D+00 WtEn= 0.00D+00
 Coeff-Com: -0.280D-04 0.591D-04 0.264D-03-0.124D-02 0.215D-02-0.142D-02
 Coeff-Com: -0.130D-01 0.255D-01-0.255D-01 0.708D-01-0.340D+00 0.128D+01
 Coeff:     -0.280D-04 0.591D-04 0.264D-03-0.124D-02 0.215D-02-0.142D-02
 Coeff:     -0.130D-01 0.255D-01-0.255D-01 0.708D-01-0.340D+00 0.128D+01
 Gap=     0.336 Goal=   None    Shift=    0.000
 Gap=     0.336 Goal=   None    Shift=    0.000
 RMSDP=1.83D-07 MaxDP=7.22D-06 DE=-1.72D-08 OVMax= 2.43D-05

 Cycle  13  Pass 1  IDiag  1:
 Density matrix breaks symmetry, PCut= 1.00D-07
 Density matrix has no symmetry -- integrals replicated.
 E= -25.0275630301616     Delta-E=       -0.000000000147 Rises=F Damp=F
 DIIS: error= 2.52D-07 at cycle  13 NSaved=  13.
 NSaved=13 IEnMin=13 EnMin= -25.0275630301616     IErMin=13 ErrMin= 2.52D-07
 ErrMax= 2.52D-07  0.00D+00 EMaxC= 1.00D-01 BMatC= 4.34D-12 BMatP= 6.78D-11
 IDIUse=1 WtCom= 1.00D+00 WtEn= 0.00D+00
 Coeff-Com:  0.327D-05-0.743D-05-0.465D-04 0.149D-03-0.136D-03-0.313D-05
 Coeff-Com:  0.686D-03-0.157D-02 0.258D-02-0.122D-01 0.829D-01-0.512D+00
 Coeff-Com:  0.144D+01
 Coeff:      0.327D-05-0.743D-05-0.465D-04 0.149D-03-0.136D-03-0.313D-05
 Coeff:      0.686D-03-0.157D-02 0.258D-02-0.122D-01 0.829D-01-0.512D+00
 Coeff:      0.144D+01
 Gap=     0.336 Goal=   None    Shift=    0.000
 Gap=     0.336 Goal=   None    Shift=    0.000
 RMSDP=1.87D-08 MaxDP=4.03D-07 DE=-1.47D-10 OVMax= 2.57D-06

 Cycle  14  Pass 1  IDiag  1:
 Density matrix breaks symmetry, PCut= 1.00D-07
 Density matrix has no symmetry -- integrals replicated.
 E= -25.0275630301675     Delta-E=       -0.000000000006 Rises=F Damp=F
 DIIS: error= 5.13D-08 at cycle  14 NSaved=  14.
 NSaved=14 IEnMin=14 EnMin= -25.0275630301675     IErMin=14 ErrMin= 5.13D-08
 ErrMax= 5.13D-08  0.00D+00 EMaxC= 1.00D-01 BMatC= 3.34D-13 BMatP= 4.34D-12
 IDIUse=1 WtCom= 1.00D+00 WtEn= 0.00D+00
 Coeff-Com:  0.442D-05-0.820D-05 0.654D-05 0.106D-05-0.636D-04 0.125D-03
 Coeff-Com: -0.370D-04 0.516D-04-0.517D-03 0.348D-02-0.251D-01 0.180D+00
 Coeff-Com: -0.684D+00 0.153D+01
 Coeff:      0.442D-05-0.820D-05 0.654D-05 0.106D-05-0.636D-04 0.125D-03
 Coeff:     -0.370D-04 0.516D-04-0.517D-03 0.348D-02-0.251D-01 0.180D+00
 Coeff:     -0.684D+00 0.153D+01
 Gap=     0.336 Goal=   None    Shift=    0.000
 Gap=     0.336 Goal=   None    Shift=    0.000
 RMSDP=6.84D-09 MaxDP=1.61D-07 DE=-5.89D-12 OVMax= 1.10D-06

 Density matrix breaks symmetry, PCut= 1.00D-07
 Density matrix has no symmetry -- integrals replicated.
 SCF Done:  E(UHF) =  -25.0275630302     A.U. after   14 cycles
            NFock= 14  Conv=0.68D-08     -V/T= 2.0100
 <Sx>= 0.0000 <Sy>= 0.0000 <Sz>= 0.0000 <S**2>= 0.2386 S= 0.1990
 <L.S>=  0.00000000000    
 KE= 2.477924281029D+01 PE=-5.987757792694D+01 EE= 8.868096607119D+00
 Annihilation of the first spin contaminant:
 S**2 before annihilation     0.2386,   after     0.0030
 Leave Link  502 at Sun May 22 18:35:00 2022, MaxMem=   104857600 cpu:               3.9 elap:               3.9
 (Enter /apps/software/g16/l601.exe)
 Copying SCF densities to generalized density rwf, IOpCl= 1 IROHF=0.
 SCF density gives NOpUse=  1 NOpAll=  4.
 Marking SCF density as not fully symmetric.

 **********************************************************************

            Population analysis using the SCF density.

 **********************************************************************

 Orbital symmetries:
 Alpha Orbitals:
       Occupied  (SG) (?A) (?A)
       Virtual   (?A) (?A) (SG) (?A) (?A) (?A) (?A) (?A) (?B) (?B)
                 (?B) (?B) (SG) (?C) (?C) (?C) (?C) (?C) (?C) (?C)
                 (?D) (?D) (?D) (?D) (?D) (?D) (?D) (?D) (SG) (PI)
                 (PI) (SG) (SG) (DLTA) (DLTA) (PI) (PI) (?E) (?E)
                 (?E) (SG) (PI) (PI) (SG) (?F) (?F) (?F) (?F) (?G)
                 (?G) (?G) (?G) (?G) (?G) (?G) (?G) (?G) (?H) (?H)
                 (?H) (?H) (?H) (SG) (PHI) (PHI) (PI) (PI) (SG)
                 (SG) (DLTA) (DLTA) (SG) (PI) (PI) (DLTA) (DLTA)
                 (PI) (PI) (PI) (PI) (SG) (SG) (PI) (PI) (?I) (?I)
                 (?J) (?J) (PHI) (PHI) (?J) (?J) (?J) (?J) (?J)
                 (?J) (?K) (?K) (?K) (?K) (?K) (?K) (PI) (PI) (SG)
                 (SG) (PHI) (PHI) (DLTA) (DLTA) (PI) (PI) (SG)
                 (SG) (PI) (PI) (DLTA) (DLTA) (SG) (PI) (PI) (SG)
                 (SG)
 Beta  Orbitals:
       Occupied  (SG) (?A) (?A)
       Virtual   (?A) (?A) (SG) (?A) (?A) (?A) (?A) (?A) (?B) (?B)
                 (?B) (?B) (SG) (?C) (?C) (?C) (?C) (?C) (?C) (?C)
                 (?D) (?D) (?D) (?D) (?D) (?D) (?D) (?D) (SG) (PI)
                 (PI) (SG) (SG) (DLTA) (DLTA) (PI) (PI) (?E) (?E)
                 (?E) (SG) (PI) (PI) (SG) (?F) (?F) (?F) (?F) (?G)
                 (?G) (?G) (?G) (?G) (?G) (?G) (?G) (?G) (?H) (?H)
                 (?H) (?H) (?H) (SG) (PHI) (PHI) (PI) (PI) (SG)
                 (SG) (DLTA) (DLTA) (SG) (PI) (PI) (DLTA) (DLTA)
                 (PI) (PI) (PI) (PI) (SG) (SG) (PI) (PI) (?I) (?I)
                 (?J) (?J) (PHI) (PHI) (?J) (?J) (?J) (?J) (?J)
                 (?J) (?K) (?K) (?K) (?K) (?K) (?K) (PI) (PI) (SG)
                 (SG) (PHI) (PHI) (DLTA) (DLTA) (PI) (PI) (SG)
                 (SG) (PI) (PI) (DLTA) (DLTA) (SG) (PI) (PI) (SG)
                 (SG)
 Unable to determine electronic state:  an orbital has unidentified symmetry.
 Alpha  occ. eigenvalues --   -7.79148  -0.56131  -0.32827
 Alpha virt. eigenvalues --    0.00783   0.01097   0.02538   0.05347   0.06320
 Alpha virt. eigenvalues --    0.06471   0.08160   0.09177   0.13960   0.14001
 Alpha virt. eigenvalues --    0.14112   0.14144   0.18665   0.25181   0.26973
 Alpha virt. eigenvalues --    0.27019   0.29474   0.29601   0.31904   0.36161
 Alpha virt. eigenvalues --    0.45140   0.45140   0.45754   0.45755   0.47383
 Alpha virt. eigenvalues --    0.47506   0.48207   0.48243   0.49898   0.53727
 Alpha virt. eigenvalues --    0.53861   0.58615   0.64109   0.75382   0.75383
 Alpha virt. eigenvalues --    0.83976   0.84005   0.86556   0.93142   0.93237
 Alpha virt. eigenvalues --    0.96843   1.07360   1.07482   1.29687   1.33705
 Alpha virt. eigenvalues --    1.33705   1.34915   1.34915   1.35729   1.35913
 Alpha virt. eigenvalues --    1.36948   1.36974   1.38913   1.38917   1.39980
 Alpha virt. eigenvalues --    1.41204   1.41204   1.44543   1.44840   1.45184
 Alpha virt. eigenvalues --    1.45758   1.45797   1.60274   1.68118   1.68118
 Alpha virt. eigenvalues --    1.71929   1.72168   1.74126   1.96538   1.97895
 Alpha virt. eigenvalues --    1.97895   2.10442   2.14786   2.14888   2.57420
 Alpha virt. eigenvalues --    2.57420   2.72203   2.72250   2.92444   2.92513
 Alpha virt. eigenvalues --    2.96094   3.32667   3.70598   3.70940   3.87673
 Alpha virt. eigenvalues --    3.87673   3.89464   3.89465   3.90119   3.90120
 Alpha virt. eigenvalues --    3.93070   3.93473   3.93870   3.96898   3.96940
 Alpha virt. eigenvalues --    3.98097   4.03407   4.03407   4.06947   4.07006
 Alpha virt. eigenvalues --    4.08008   4.08383   4.25637   4.26015   4.42553
 Alpha virt. eigenvalues --    4.57810   6.64373   6.64373   6.72552   6.72552
 Alpha virt. eigenvalues --    6.80857   6.80871   6.84166   7.73966   8.19486
 Alpha virt. eigenvalues --    8.19498   8.50566   8.50566   8.54544   8.61782
 Alpha virt. eigenvalues --    8.61794   9.05365  13.40403
  Beta  occ. eigenvalues --   -7.79148  -0.56131  -0.32827
  Beta virt. eigenvalues --    0.00783   0.01097   0.02538   0.05347   0.06320
  Beta virt. eigenvalues --    0.06471   0.08160   0.09177   0.13960   0.14001
  Beta virt. eigenvalues --    0.14112   0.14144   0.18665   0.25181   0.26973
  Beta virt. eigenvalues --    0.27019   0.29474   0.29601   0.31904   0.36161
  Beta virt. eigenvalues --    0.45140   0.45140   0.45754   0.45755   0.47383
  Beta virt. eigenvalues --    0.47506   0.48207   0.48243   0.49898   0.53727
  Beta virt. eigenvalues --    0.53861   0.58615   0.64109   0.75382   0.75383
  Beta virt. eigenvalues --    0.83976   0.84005   0.86556   0.93142   0.93237
  Beta virt. eigenvalues --    0.96843   1.07360   1.07482   1.29687   1.33705
  Beta virt. eigenvalues --    1.33705   1.34915   1.34915   1.35729   1.35913
  Beta virt. eigenvalues --    1.36948   1.36974   1.38913   1.38917   1.39980
  Beta virt. eigenvalues --    1.41204   1.41204   1.44543   1.44840   1.45184
  Beta virt. eigenvalues --    1.45758   1.45797   1.60274   1.68118   1.68118
  Beta virt. eigenvalues --    1.71929   1.72168   1.74126   1.96538   1.97895
  Beta virt. eigenvalues --    1.97895   2.10442   2.14786   2.14888   2.57420
  Beta virt. eigenvalues --    2.57420   2.72203   2.72250   2.92444   2.92513
  Beta virt. eigenvalues --    2.96094   3.32667   3.70598   3.70940   3.87673
  Beta virt. eigenvalues --    3.87673   3.89464   3.89465   3.90119   3.90120
  Beta virt. eigenvalues --    3.93070   3.93473   3.93870   3.96898   3.96940
  Beta virt. eigenvalues --    3.98097   4.03407   4.03407   4.06947   4.07006
  Beta virt. eigenvalues --    4.08008   4.08383   4.25637   4.26015   4.42553
  Beta virt. eigenvalues --    4.57810   6.64373   6.64373   6.72552   6.72552
  Beta virt. eigenvalues --    6.80857   6.80871   6.84166   7.73966   8.19486
  Beta virt. eigenvalues --    8.19498   8.50566   8.50566   8.54544   8.61782
  Beta virt. eigenvalues --    8.61794   9.05365  13.40403
          Condensed to atoms (all electrons):
               1          2
     1  B    4.533113   0.283131
     2  H    0.283131   0.900625
          Atomic-Atomic Spin Densities.
               1          2
     1  B    0.000000   0.000000
     2  H    0.000000   0.000000
 Mulliken charges and spin densities:
               1          2
     1  B    0.183756   0.000000
     2  H   -0.183756   0.000000
 Sum of Mulliken charges =  -0.00000   0.00000
 Mulliken charges and spin densities with hydrogens summed into heavy atoms:
               1          2
     1  B   -0.000000   0.000000
 Electronic spatial extent (au):  <R**2>=             35.8773
 Charge=             -0.0000 electrons
 Dipole moment (field-independent basis, Debye):
    X=              0.0000    Y=              0.0000    Z=              2.1499  Tot=              2.1499
 Quadrupole moment (field-independent basis, Debye-Ang):
   XX=             -8.0690   YY=             -7.6477   ZZ=            -13.1666
   XY=              0.0000   XZ=              0.0000   YZ=              0.0000
 Traceless Quadrupole moment (field-independent basis, Debye-Ang):
   XX=              1.5588   YY=              1.9800   ZZ=             -3.5388
   XY=              0.0000   XZ=              0.0000   YZ=              0.0000
 Octapole moment (field-independent basis, Debye-Ang**2):
  XXX=              0.0000  YYY=              0.0000  ZZZ=              7.3372  XYY=              0.0000
  XXY=              0.0000  XXZ=              2.0222  XZZ=              0.0000  YZZ=             -0.0000
  YYZ=              2.2562  XYZ=              0.0000
 Hexadecapole moment (field-independent basis, Debye-Ang**3):
 XXXX=            -12.9119 YYYY=            -11.8035 ZZZZ=            -71.2010 XXXY=              0.0000
 XXXZ=              0.0000 YYYX=              0.0000 YYYZ=             -0.0000 ZZZX=              0.0000
 ZZZY=             -0.0000 XXYY=             -4.1193 XXZZ=            -13.9404 YYZZ=            -13.6385
 XXYZ=             -0.0000 YYXZ=              0.0000 ZZXY=              0.0000
 N-N= 1.202675479364D+00 E-N=-5.987757746079D+01  KE= 2.477924281029D+01
 Symmetry A1   KE= 2.467273243581D+01
 Symmetry A2   KE= 6.117484540880D-30
 Symmetry B1   KE= 1.065103744766D-01
 Symmetry B2   KE= 9.432732062922D-29
 Symmetry A1   SP= 0.000000000000D+00
 Symmetry A2   SP= 0.000000000000D+00
 Symmetry B1   SP= 0.000000000000D+00
 Symmetry B2   SP= 0.000000000000D+00
                          Isotropic Fermi Contact Couplings
        Atom                 a.u.       MegaHertz       Gauss      10(-4) cm-1
     1  B(11)              0.00000       0.00000       0.00000       0.00000
     2  H(1)               0.00000       0.00000       0.00000       0.00000
 --------------------------------------------------------
       Center         ----  Spin Dipole Couplings  ----
                      3XX-RR        3YY-RR        3ZZ-RR
 --------------------------------------------------------
     1   Atom        0.000000      0.000000      0.000000
     2   Atom        0.000000      0.000000      0.000000
 --------------------------------------------------------
                        XY            XZ            YZ
 --------------------------------------------------------
     1   Atom       -0.000000     -0.210282      0.000000
     2   Atom        0.000000      0.001875      0.000000
 --------------------------------------------------------


 ---------------------------------------------------------------------------------
              Anisotropic Spin Dipole Couplings in Principal Axis System
 ---------------------------------------------------------------------------------

       Atom             a.u.   MegaHertz   Gauss  10(-4) cm-1        Axes

              Baa    -0.2103   -36.003   -12.847   -12.009  0.7071  0.0000  0.7071
     1 B(11)  Bbb    -0.0000    -0.000    -0.000    -0.000  0.0000  1.0000 -0.0000
              Bcc     0.2103    36.003    12.847    12.009  0.7071 -0.0000 -0.7071
 
              Baa    -0.0019    -1.001    -0.357    -0.334  0.7071 -0.0000 -0.7071
     2 H(1)   Bbb    -0.0000    -0.000    -0.000    -0.000 -0.0000  1.0000 -0.0000
              Bcc     0.0019     1.001     0.357     0.334  0.7071  0.0000  0.7071
 

 ---------------------------------------------------------------------------------

 No NMR shielding tensors so no spin-rotation constants.
 Leave Link  601 at Sun May 22 18:35:01 2022, MaxMem=   104857600 cpu:               0.2 elap:               0.2
 (Enter /apps/software/g16/l801.exe)
 Range of M.O.s used for correlation:     1   126
 NBasis=   126 NAE=     3 NBE=     3 NFC=     0 NFV=     0
 NROrb=    126 NOA=     3 NOB=     3 NVA=   123 NVB=   123

 **** Warning!!: The largest alpha MO coefficient is  0.12262324D+02


 **** Warning!!: The largest beta MO coefficient is  0.12262324D+02

 Leave Link  801 at Sun May 22 18:35:01 2022, MaxMem=   104857600 cpu:               0.0 elap:               0.0
 (Enter /apps/software/g16/l914.exe)
 UHF ground state
 Doing stability rather than CIS.
 Keep R1 and R2 ints in memory in symmetry-blocked form, NReq=40144005.
 FoFCou: FMM=F IPFlag=           0 FMFlag=           0 FMFlg1=           0
         NFxFlg=           0 DoJE=F BraDBF=F KetDBF=F FulRan=T
         wScrn=  0.000000 ICntrl=       600 IOpCl=  0 I1Cent=           0 NGrid=           0
         NMat0=    1 NMatS0=   8001 NMatT0=    0 NMatD0=    1 NMtDS0=    0 NMtDT0=    0
 Petite list used in FoFCou.
 MDV=   104857600 DFT=F DoStab=T Mixed=F DoRPA=F DoScal=F NonHer=F
 Making orbital integer symmetry assigments:
 Orbital symmetries:
 Alpha Orbitals:
       Occupied  (SG) (?A) (?A)
       Virtual   (?A) (?A) (SG) (?A) (?A) (?A) (?A) (?A) (?B) (?B)
                 (?B) (?B) (SG) (?C) (?C) (?C) (?C) (?C) (?C) (?C)
                 (?D) (?D) (?D) (?D) (?D) (?D) (?D) (?D) (SG) (PI)
                 (PI) (SG) (SG) (DLTA) (DLTA) (PI) (PI) (?E) (?E)
                 (?E) (SG) (PI) (PI) (SG) (?F) (?F) (?F) (?F) (?G)
                 (?G) (?G) (?G) (?G) (?G) (?G) (?G) (?G) (?H) (?H)
                 (?H) (?H) (?H) (SG) (PHI) (PHI) (PI) (PI) (SG)
                 (SG) (DLTA) (DLTA) (SG) (PI) (PI) (DLTA) (DLTA)
                 (PI) (PI) (PI) (PI) (SG) (SG) (PI) (PI) (?I) (?I)
                 (?J) (?J) (PHI) (PHI) (?J) (?J) (?J) (?J) (?J)
                 (?J) (?K) (?K) (?K) (?K) (?K) (?K) (PI) (PI) (SG)
                 (SG) (PHI) (PHI) (DLTA) (DLTA) (PI) (PI) (SG)
                 (SG) (PI) (PI) (DLTA) (DLTA) (SG) (PI) (PI) (SG)
                 (SG)
 Beta  Orbitals:
       Occupied  (SG) (?A) (?A)
       Virtual   (?A) (?A) (SG) (?A) (?A) (?A) (?A) (?A) (?B) (?B)
                 (?B) (?B) (SG) (?C) (?C) (?C) (?C) (?C) (?C) (?C)
                 (?D) (?D) (?D) (?D) (?D) (?D) (?D) (?D) (SG) (PI)
                 (PI) (SG) (SG) (DLTA) (DLTA) (PI) (PI) (?E) (?E)
                 (?E) (SG) (PI) (PI) (SG) (?F) (?F) (?F) (?F) (?G)
                 (?G) (?G) (?G) (?G) (?G) (?G) (?G) (?G) (?H) (?H)
                 (?H) (?H) (?H) (SG) (PHI) (PHI) (PI) (PI) (SG)
                 (SG) (DLTA) (DLTA) (SG) (PI) (PI) (DLTA) (DLTA)
                 (PI) (PI) (PI) (PI) (SG) (SG) (PI) (PI) (?I) (?I)
                 (?J) (?J) (PHI) (PHI) (?J) (?J) (?J) (?J) (?J)
                 (?J) (?K) (?K) (?K) (?K) (?K) (?K) (PI) (PI) (SG)
                 (SG) (PHI) (PHI) (DLTA) (DLTA) (PI) (PI) (SG)
                 (SG) (PI) (PI) (DLTA) (DLTA) (SG) (PI) (PI) (SG)
                 (SG)
    12 initial guesses have been made.
 Convergence on wavefunction:    0.001000000000000
 Davidson Disk Diagonalization:  ConvIn= 1.00D-03 SkipCon=T Conv= 1.00D-03.
 Max sub-space:  1476 roots to seek:    12 dimension of matrix:          738
 Iteration     1 Dimension    12 NMult     0 NNew     12
 CISAX will form    12 AO SS matrices at one time.
 NMat=    12 NSing=    12 JSym2X= 2.
 New state      1 was old state      5
 Excitation Energies [eV] at current iteration:
 Root      1 :    -0.897945941176716
 Root      2 :     0.467804661003554
 Root      3 :     1.573549394112131
 Root      4 :     3.287545422867600
 Root      5 :     3.293431115973054
 Root      6 :     3.821205963049755
 Root      7 :     4.283731936203424
 Root      8 :     6.368184984118796
 Root      9 :     6.410816680794619
 Root     10 :    10.949711950598671
 Root     11 :    11.443771959744961
 Root     12 :    11.809154814066410
 Iteration     2 Dimension    24 NMult    12 NNew     12
 CISAX will form    12 AO SS matrices at one time.
 NMat=    12 NSing=    12 JSym2X= 2.
 Root      1 not converged, maximum delta is    0.076434823383055
 Excitation Energies [eV] at current iteration:
 Root      1 :    -2.208694142722492   Change is   -1.310748201545775
 Root      2 :     0.010804582571676   Change is   -0.457000078431878
 Root      3 :     1.044795510792620   Change is   -0.528753883319511
 Root      4 :     2.518987527815376   Change is   -0.774443588157678
 Root      5 :     2.667880438506304   Change is   -0.619664984361297
 Root      6 :     3.009093691081146   Change is   -0.812112271968610
 Root      7 :     3.482730584815800   Change is   -0.801001351387624
 Root      8 :     5.963217435996935   Change is   -0.404967548121861
 Root      9 :     6.026272954446698   Change is   -0.384543726347921
 Root     10 :     7.977789527809231   Change is   -2.971922422789440
 Root     11 :     8.182579560741109   Change is   -3.261192399003852
 Root     12 :     8.677958487046235   Change is   -3.131196327020177
 Iteration     3 Dimension    27 NMult    24 NNew      3
 CISAX will form     3 AO SS matrices at one time.
 NMat=     3 NSing=     3 JSym2X= 2.
 Root      1 not converged, maximum delta is    0.019304722416914
 Excitation Energies [eV] at current iteration:
 Root      1 :    -2.274440870940545   Change is   -0.065746728218054
 Root      2 :     0.000311684406741   Change is   -0.010492898164935
 Root      3 :     1.025761369347502   Change is   -0.019034141445119
 Iteration     4 Dimension    30 NMult    27 NNew      3
 CISAX will form     3 AO SS matrices at one time.
 NMat=     3 NSing=     3 JSym2X= 2.
 Root      1 not converged, maximum delta is    0.008204563770082
 Excitation Energies [eV] at current iteration:
 Root      1 :    -2.280868206770344   Change is   -0.006427335829799
 Root      2 :     0.000019408634968   Change is   -0.000292275771772
 Root      3 :     1.024789033334233   Change is   -0.000972336013269
 Cease iterating as an instability has been found.
 ***********************************************************************
 Stability analysis using <AA,BB:AA,BB> singles matrix:
 ***********************************************************************
 1PDM for each excited state written to RWF  633
 Ground to excited state transition densities written to RWF  633

 Eigenvectors of the stability matrix:
 
 Excited state symmetry could not be determined.
 Eigenvector   1:  2.992-?Sym  Eigenvalue=-0.0838204  <S**2>=1.988
      3A ->  5A        0.17448
      3A ->  6A       -0.27596
      3A ->  7A       -0.23742
      3A ->  9A       -0.11919
      3A -> 10A        0.47600
      3A -> 16A        0.20876
      3A -> 22A        0.11841
      3B ->  5B        0.17448
      3B ->  6B        0.27596
      3B ->  7B        0.23742
      3B ->  9B       -0.11919
      3B -> 10B       -0.47600
      3B -> 16B       -0.20876
      3B -> 22B       -0.11841
 
 Excited state symmetry could not be determined.
 Eigenvector   2:  2.916-?Sym  Eigenvalue= 0.0000007  <S**2>=1.876
      2A ->  4A       -0.34131
      2A ->  8A        0.23456
      2A -> 18A        0.11200
      2A -> 21A        0.12983
      3A ->  4A        0.45218
      3A ->  8A       -0.26468
      3A -> 21A       -0.10824
      2B ->  4B        0.34131
      2B ->  8B       -0.23456
      2B -> 18B       -0.11200
      2B -> 21B       -0.12983
      3B ->  4B       -0.45218
      3B ->  8B        0.26468
      3B -> 21B        0.10824
 
 Excited state symmetry could not be determined.
 Eigenvector   3:  2.669-?Sym  Eigenvalue= 0.0376603  <S**2>=1.531
      2A ->  5A       -0.29738
      2A ->  9A        0.19457
      2A -> 20A        0.10149
      3A ->  5A        0.47831
      3A ->  9A       -0.26097
      3A -> 10A       -0.12240
      2B ->  5B        0.29738
      2B ->  9B       -0.19457
      2B -> 20B       -0.10149
      3B ->  5B       -0.47831
      3B ->  9B        0.26097
      3B -> 10B       -0.12240
 The wavefunction has an internal instability.
 Leave Link  914 at Sun May 22 18:35:05 2022, MaxMem=   104857600 cpu:               4.1 elap:               4.1
 (Enter /apps/software/g16/l508.exe)
 Keep R1 and R2 ints in memory in symmetry-blocked form, NReq=40144065.
 FoFCou: FMM=F IPFlag=           0 FMFlag=           0 FMFlg1=           0
         NFxFlg=           0 DoJE=F BraDBF=F KetDBF=F FulRan=T
         wScrn=  0.000000 ICntrl=       600 IOpCl=  0 I1Cent=           0 NGrid=           0
         NMat0=    1 NMatS0=   8001 NMatT0=    0 NMatD0=    1 NMtDS0=    0 NMtDT0=    0
 Petite list used in FoFCou.
 Tight linear equation convergence will be used.
 UHF wavefunction.
 Quadratic Convergence SCF Method.
 Line search only if initial step raises energy.
 Perform preliminary linear searches along instability eigenvector.
     ILin= 1 X=0.000D+00 Y=-2.502756303017D+01 DE= 0.00D+00
     ILin= 2 X=1.000D-01 Y=-2.502838611483D+01 DE=-8.23D-04
     ILin= 3 X=1.414D-01 Y=-2.502917915813D+01 DE=-1.62D-03
     ILin= 4 X=2.000D-01 Y=-2.503067621533D+01 DE=-3.11D-03
     ILin= 5 X=2.828D-01 Y=-2.503332176720D+01 DE=-5.76D-03
     ILin= 6 X=4.000D-01 Y=-2.503727775441D+01 DE=-9.71D-03
     ILin= 7 X=5.657D-01 Y=-2.504030180403D+01 DE=-1.27D-02
     ILin= 8 X=8.000D-01 Y=-2.503010784255D+01 DE=-2.54D-03
     An  expanding polynomial of degree  8 produced  0.5660
 Iteration F X= 5.660D-01 EE=-2.504030181911773D+01
     ILin= 1 X=0.000D+00 Y=-2.502756303017D+01 DE= 0.00D+00
     ILin= 2 X=1.000D-01 Y=-2.502838611612D+01 DE=-8.23D-04
     ILin= 3 X=1.414D-01 Y=-2.502917916178D+01 DE=-1.62D-03
 The two search directions are symmetric.
 Iteration B X= 5.660D-01 EE=-2.504030181911773D+01
 Take forward step, X= 5.660D-01 Step= 5.660D-01
 Iteration   1 EE= -25.0403018196870                                    Grad=4.369D-02 Max rot=    0.7842 deg.
 Gradient too large for Newton-Raphson -- use scaled steepest descent instead.
 Alpha Gap=     0.426 HL deriv= 9.42D-17
  Beta Gap=     0.340 HL deriv= 4.15D-16
     ILin= 1 X=0.000D+00 Y=-2.504030181969D+01 DE= 0.00D+00 F= -4.04D-03
     ILin= 2 X=3.000D-01 Y=-2.504139987987D+01 DE=-1.10D-03 F= -3.28D-03
     ILin= 3 X=6.000D-01 Y=-2.504226945794D+01 DE=-1.97D-03 F= -2.52D-03
     ILin= 4 X=1.200D+00 Y=-2.504331860384D+01 DE=-3.02D-03 F= -9.79D-04
     ILin= 5 X=2.400D+00 Y=-2.504263210164D+01 DE=-2.33D-03 F=  2.13D-03
     An  expanding polynomial of degree  5 produced  1.5794
 Iteration   2 EE= -25.0435043466891     Delta-E=       -0.003202527002 Grad=1.554D-02 Max rot=    0.2490 deg.
 Gradient too large for Newton-Raphson -- use scaled steepest descent instead.
 Alpha Gap=     0.434 HL deriv= 7.44D-17
  Beta Gap=     0.344 HL deriv= 4.93D-16
     ILin= 1 X=0.000D+00 Y=-2.504350434669D+01 DE= 0.00D+00 F= -5.81D-04
     ILin= 2 X=7.000D-01 Y=-2.504385018678D+01 DE=-3.46D-04 F= -4.06D-04
     ILin= 3 X=1.400D+00 Y=-2.504407221682D+01 DE=-5.68D-04 F= -2.27D-04
     ILin= 4 X=2.800D+00 Y=-2.504413282033D+01 DE=-6.28D-04 F=  1.44D-04
     Accept linear search using points  3 and  4.
     An  expanding polynomial of degree  4 produced  2.3521
 Iteration   3 EE= -25.0441700629969     Delta-E=       -0.000665716308 Grad=1.548D-02 Max rot=    0.3022 deg.
 Gradient too large for Newton-Raphson -- use scaled steepest descent instead.
 Alpha Gap=     0.442 HL deriv= 1.99D-17
  Beta Gap=     0.348 HL deriv= 8.83D-16
     ILin= 1 X=0.000D+00 Y=-2.504417006300D+01 DE= 0.00D+00 F= -3.64D-04
     ILin= 2 X=1.900D+00 Y=-2.504443707773D+01 DE=-2.67D-04 F=  8.30D-05
     Accept linear search using points  1 and  2.
     An  expanding polynomial of degree  2 produced  1.7926
     Minimum is close to point  2 DX= -1.07D-01 DF= -2.29D-06 DXR=  5.99D-02 DFR=  8.58D-03 which will be used.
 Iteration   4 EE= -25.0444370777266     Delta-E=       -0.000267014730 Grad=1.086D-02 Max rot=    0.2007 deg.
 Gradient too large for Newton-Raphson -- use scaled steepest descent instead.
 Alpha Gap=     0.445 HL deriv= 3.90D-20
  Beta Gap=     0.349 HL deriv= 9.61D-16
     ILin= 1 X=0.000D+00 Y=-2.504443707773D+01 DE= 0.00D+00 F= -1.83D-04
     ILin= 2 X=2.100D+00 Y=-2.504455771226D+01 DE=-1.21D-04 F=  6.89D-05
     Accept linear search using points  1 and  2.
     An  expanding polynomial of degree  2 produced  1.8893
 Iteration   5 EE= -25.0445695448722     Delta-E=       -0.000132467146 Grad=8.572D-03 Max rot=    0.1481 deg.
 QCNR:  CnvC1=2.72D-09 CnvC2=2.72D-08
 LinEq1:  Iter=  0 NonCon=     1 RMS=2.85D-04 Max=2.29D-03 NDo=     1
 AX will form     1 AO Fock derivatives at one time.
 LinEq1:  Iter=  1 NonCon=     1 RMS=1.11D-04 Max=8.20D-04 NDo=     1
 LinEq1:  Iter=  2 NonCon=     1 RMS=1.43D-05 Max=1.55D-04 NDo=     1
 LinEq1:  Iter=  3 NonCon=     1 RMS=5.18D-06 Max=5.20D-05 NDo=     1
 LinEq1:  Iter=  4 NonCon=     1 RMS=8.34D-07 Max=7.03D-06 NDo=     1
 LinEq1:  Iter=  5 NonCon=     1 RMS=2.44D-07 Max=2.68D-06 NDo=     1
 LinEq1:  Iter=  6 NonCon=     1 RMS=3.83D-08 Max=2.89D-07 NDo=     1
 LinEq1:  Iter=  7 NonCon=     1 RMS=4.75D-09 Max=3.27D-08 NDo=     1
 LinEq1:  Iter=  8 NonCon=     0 RMS=6.83D-10 Max=4.74D-09 NDo=     1
 Linear equations converged to 2.717D-09 2.717D-08 after     8 iterations.
 Angle between quadratic step and gradient=  71.03 degrees.
     ILin= 1 X=0.000D+00 Y=-2.504456954487D+01 DE= 0.00D+00 F= -7.47D-04
     ILin= 2 X=1.000D+00 Y=-2.504499584098D+01 DE=-4.26D-04 F= -1.43D-04
     Reject lnstep minimum 1.306D+00 FVal=-2.504501719893D+01 Lims=  0.00D+00  1.00D+00
     ILin= 3 X=1.700D+00 Y=-2.504496482402D+01 DE=-3.95D-04 F=  2.40D-04
     An  expanding polynomial of degree  3 produced  1.2700
 Iteration   6 EE= -25.0450152258929     Delta-E=       -0.000445681021 Grad=4.137D-03 Max rot=    0.0547 deg.
 QCNR:  CnvC1=2.72D-09 CnvC2=2.72D-08
 LinEq1:  Iter=  0 NonCon=     1 RMS=1.50D-04 Max=1.45D-03 NDo=     1
 LinEq1:  Iter=  1 NonCon=     1 RMS=3.68D-05 Max=2.62D-04 NDo=     1
 LinEq1:  Iter=  2 NonCon=     1 RMS=9.21D-06 Max=7.77D-05 NDo=     1
 LinEq1:  Iter=  3 NonCon=     1 RMS=2.78D-06 Max=2.36D-05 NDo=     1
 LinEq1:  Iter=  4 NonCon=     1 RMS=5.81D-07 Max=4.14D-06 NDo=     1
 LinEq1:  Iter=  5 NonCon=     1 RMS=1.32D-07 Max=1.93D-06 NDo=     1
 LinEq1:  Iter=  6 NonCon=     1 RMS=3.75D-08 Max=3.54D-07 NDo=     1
 LinEq1:  Iter=  7 NonCon=     1 RMS=6.06D-09 Max=4.80D-08 NDo=     1
 LinEq1:  Iter=  8 NonCon=     0 RMS=1.34D-09 Max=1.16D-08 NDo=     1
 Linear equations converged to 2.717D-09 2.717D-08 after     8 iterations.
 Angle between quadratic step and gradient=  75.67 degrees.
     ILin= 1 X=0.000D+00 Y=-2.504501522589D+01 DE= 0.00D+00 F= -1.15D-04
     ILin= 2 X=1.000D+00 Y=-2.504508058087D+01 DE=-6.54D-05 F= -2.41D-05
     Reject lnstep minimum 1.413D+00 FVal=-2.504508532852D+01 Lims=  0.00D+00  1.00D+00
     ILin= 3 X=2.000D+00 Y=-2.504507743302D+01 DE=-6.22D-05 F=  2.49D-05
     An  expanding polynomial of degree  3 produced  1.4540
 Iteration   7 EE= -25.0450852467686     Delta-E=       -0.000070020876 Grad=3.046D-03 Max rot=    0.0734 deg.
 QCNR:  CnvC1=2.72D-09 CnvC2=2.72D-08
 LinEq1:  Iter=  0 NonCon=     1 RMS=5.02D-05 Max=5.34D-04 NDo=     1
 LinEq1:  Iter=  1 NonCon=     1 RMS=1.40D-05 Max=1.47D-04 NDo=     1
 LinEq1:  Iter=  2 NonCon=     1 RMS=3.67D-06 Max=4.11D-05 NDo=     1
 LinEq1:  Iter=  3 NonCon=     1 RMS=1.01D-06 Max=1.06D-05 NDo=     1
 LinEq1:  Iter=  4 NonCon=     1 RMS=1.87D-07 Max=1.38D-06 NDo=     1
 LinEq1:  Iter=  5 NonCon=     1 RMS=4.69D-08 Max=4.26D-07 NDo=     1
 LinEq1:  Iter=  6 NonCon=     1 RMS=1.72D-08 Max=1.79D-07 NDo=     1
 LinEq1:  Iter=  7 NonCon=     0 RMS=2.66D-09 Max=2.09D-08 NDo=     1
 Linear equations converged to 2.717D-09 2.717D-08 after     7 iterations.
 Angle between quadratic step and gradient=  85.94 degrees.
     ILin= 1 X=0.000D+00 Y=-2.504508524677D+01 DE= 0.00D+00 F= -1.93D-05
     ILin= 2 X=1.000D+00 Y=-2.504509301431D+01 DE=-7.77D-06 F=  4.08D-06
     Accept linear search using points  1 and  2.
     An  expanding polynomial of degree  2 produced  0.8313
 Iteration   8 EE= -25.0450933539194     Delta-E=       -0.000008107151 Grad=2.284D-03 Max rot=    0.0482 deg.
 QCNR:  CnvC1=2.72D-09 CnvC2=2.72D-08
 LinEq1:  Iter=  0 NonCon=     1 RMS=3.96D-05 Max=3.25D-04 NDo=     1
 LinEq1:  Iter=  1 NonCon=     1 RMS=9.01D-06 Max=7.94D-05 NDo=     1
 LinEq1:  Iter=  2 NonCon=     1 RMS=2.62D-06 Max=2.29D-05 NDo=     1
 LinEq1:  Iter=  3 NonCon=     1 RMS=6.63D-07 Max=5.14D-06 NDo=     1
 LinEq1:  Iter=  4 NonCon=     1 RMS=1.80D-07 Max=1.61D-06 NDo=     1
 LinEq1:  Iter=  5 NonCon=     1 RMS=3.85D-08 Max=3.73D-07 NDo=     1
 LinEq1:  Iter=  6 NonCon=     1 RMS=9.21D-09 Max=1.12D-07 NDo=     1
 LinEq1:  Iter=  7 NonCon=     0 RMS=2.60D-09 Max=2.03D-08 NDo=     1
 Linear equations converged to 2.717D-09 2.717D-08 after     7 iterations.
 Angle between quadratic step and gradient=  86.30 degrees.
     ILin= 1 X=0.000D+00 Y=-2.504509335392D+01 DE= 0.00D+00 F= -7.97D-06
     ILin= 2 X=1.000D+00 Y=-2.504509282893D+01 DE= 5.25D-07 F=  8.83D-06
     Reject lnstep minimum 4.660D-01 FVal=-2.504509520196D+01 Lims=  0.00D+00  1.00D+00
     ILin= 3 X=5.000D-01 Y=-2.504509518955D+01 DE=-1.84D-06 F=  5.72D-07
     A contracting polynomial of degree  3 produced  0.4687
     Minimum is close to point  3 DX= -3.13D-02 DF= -8.21D-09 DXR=  6.67D-02 DFR=  4.47D-03 which will be used.
 Iteration   9 EE= -25.0450951895528     Delta-E=       -0.000001835633 Grad=2.273D-03 Max rot=    0.0605 deg.
 QCNR:  CnvC1=2.72D-09 CnvC2=2.72D-08
 LinEq1:  Iter=  0 NonCon=     1 RMS=2.93D-05 Max=2.02D-04 NDo=     1
 LinEq1:  Iter=  1 NonCon=     1 RMS=7.53D-06 Max=7.68D-05 NDo=     1
 LinEq1:  Iter=  2 NonCon=     1 RMS=2.11D-06 Max=1.98D-05 NDo=     1
 LinEq1:  Iter=  3 NonCon=     1 RMS=4.52D-07 Max=6.12D-06 NDo=     1
 LinEq1:  Iter=  4 NonCon=     1 RMS=8.99D-08 Max=6.55D-07 NDo=     1
 LinEq1:  Iter=  5 NonCon=     1 RMS=2.18D-08 Max=2.18D-07 NDo=     1
 LinEq1:  Iter=  6 NonCon=     1 RMS=6.19D-09 Max=4.53D-08 NDo=     1
 LinEq1:  Iter=  7 NonCon=     0 RMS=1.24D-09 Max=1.03D-08 NDo=     1
 Linear equations converged to 2.717D-09 2.717D-08 after     7 iterations.
 Angle between quadratic step and gradient=  86.01 degrees.
     ILin= 1 X=0.000D+00 Y=-2.504509518955D+01 DE= 0.00D+00 F= -4.40D-06
     ILin= 2 X=1.000D+00 Y=-2.504509671759D+01 DE=-1.53D-06 F=  1.37D-06
     Accept linear search using points  1 and  2.
     An  expanding polynomial of degree  2 produced  0.7649
 Iteration  10 EE= -25.0450968780696     Delta-E=       -0.000001688517 Grad=1.287D-03 Max rot=    0.0352 deg.
 QCNR:  CnvC1=2.72D-09 CnvC2=2.72D-08
 LinEq1:  Iter=  0 NonCon=     1 RMS=1.65D-05 Max=1.51D-04 NDo=     1
 LinEq1:  Iter=  1 NonCon=     1 RMS=3.72D-06 Max=2.80D-05 NDo=     1
 LinEq1:  Iter=  2 NonCon=     1 RMS=1.11D-06 Max=9.77D-06 NDo=     1
 LinEq1:  Iter=  3 NonCon=     1 RMS=2.69D-07 Max=2.25D-06 NDo=     1
 LinEq1:  Iter=  4 NonCon=     1 RMS=6.42D-08 Max=5.18D-07 NDo=     1
 LinEq1:  Iter=  5 NonCon=     1 RMS=1.45D-08 Max=1.24D-07 NDo=     1
 LinEq1:  Iter=  6 NonCon=     1 RMS=2.64D-09 Max=2.98D-08 NDo=     1
 LinEq1:  Iter=  7 NonCon=     0 RMS=7.57D-10 Max=5.08D-09 NDo=     1
 Linear equations converged to 2.717D-09 2.717D-08 after     7 iterations.
 Angle between quadratic step and gradient=  88.07 degrees.
     ILin= 1 X=0.000D+00 Y=-2.504509687807D+01 DE= 0.00D+00 F= -3.90D-06
     ILin= 2 X=1.000D+00 Y=-2.504509429559D+01 DE= 2.58D-06 F=  9.01D-06
     Reject lnstep minimum 2.993D-01 FVal=-2.504509746100D+01 Lims=  0.00D+00  1.00D+00
     ILin= 3 X=3.000D-01 Y=-2.504509744773D+01 DE=-5.70D-07 F=  5.90D-08
     A contracting polynomial of degree  3 produced  0.2983
     Minimum is close to point  3 DX= -1.70D-03 DF= -1.84D-11 DXR=  5.69D-03 DFR=  3.23D-05 which will be used.
 Iteration  11 EE= -25.0450974477269     Delta-E=       -0.000000569657 Grad=1.058D-03 Max rot=    0.0235 deg.
 QCNR:  CnvC1=2.72D-09 CnvC2=2.72D-08
 LinEq1:  Iter=  0 NonCon=     1 RMS=1.60D-05 Max=1.23D-04 NDo=     1
 LinEq1:  Iter=  1 NonCon=     1 RMS=4.37D-06 Max=5.36D-05 NDo=     1
 LinEq1:  Iter=  2 NonCon=     1 RMS=1.10D-06 Max=9.18D-06 NDo=     1
 LinEq1:  Iter=  3 NonCon=     1 RMS=2.20D-07 Max=2.85D-06 NDo=     1
 LinEq1:  Iter=  4 NonCon=     1 RMS=4.05D-08 Max=3.05D-07 NDo=     1
 LinEq1:  Iter=  5 NonCon=     1 RMS=9.75D-09 Max=9.87D-08 NDo=     1
 LinEq1:  Iter=  6 NonCon=     1 RMS=2.85D-09 Max=3.24D-08 NDo=     1
 LinEq1:  Iter=  7 NonCon=     0 RMS=4.97D-10 Max=3.43D-09 NDo=     1
 Linear equations converged to 2.717D-09 2.717D-08 after     7 iterations.
 Angle between quadratic step and gradient=  85.97 degrees.
     ILin= 1 X=0.000D+00 Y=-2.504509744773D+01 DE= 0.00D+00 F= -1.01D-06
     ILin= 2 X=1.000D+00 Y=-2.504509775697D+01 DE=-3.09D-07 F=  3.91D-07
     Accept linear search using points  1 and  2.
     An  expanding polynomial of degree  2 produced  0.7208
 Iteration  12 EE= -25.0450978116104     Delta-E=       -0.000000363884 Grad=7.809D-04 Max rot=    0.0163 deg.
 QCNR:  CnvC1=2.72D-09 CnvC2=2.72D-08
 LinEq1:  Iter=  0 NonCon=     1 RMS=9.38D-06 Max=7.77D-05 NDo=     1
 LinEq1:  Iter=  1 NonCon=     1 RMS=2.25D-06 Max=1.93D-05 NDo=     1
 LinEq1:  Iter=  2 NonCon=     1 RMS=5.72D-07 Max=5.50D-06 NDo=     1
 LinEq1:  Iter=  3 NonCon=     1 RMS=1.45D-07 Max=1.82D-06 NDo=     1
 LinEq1:  Iter=  4 NonCon=     1 RMS=3.97D-08 Max=3.51D-07 NDo=     1
 LinEq1:  Iter=  5 NonCon=     1 RMS=7.47D-09 Max=6.64D-08 NDo=     1
 LinEq1:  Iter=  6 NonCon=     0 RMS=1.75D-09 Max=1.79D-08 NDo=     1
 Linear equations converged to 2.717D-09 2.717D-08 after     6 iterations.
 Angle between quadratic step and gradient=  85.48 degrees.
     ILin= 1 X=0.000D+00 Y=-2.504509781161D+01 DE= 0.00D+00 F= -3.83D-07
     ILin= 2 X=1.000D+00 Y=-2.504509800936D+01 DE=-1.98D-07 F= -1.25D-08
     Reject lnstep minimum 1.034D+00 FVal=-2.504509800957D+01 Lims=  0.00D+00  1.00D+00
     ILin= 3 X=2.000D+00 Y=-2.504509783627D+01 DE=-2.47D-08 F=  3.59D-07
     An  expanding polynomial of degree  3 produced  1.0332
     Minimum is close to point  2 DX=  3.32D-02 DF= -2.05D-10 DXR=  3.22D-02 DFR=  1.04D-03 which will be used.
 Iteration  13 EE= -25.0450980093624     Delta-E=       -0.000000197752 Grad=2.575D-04 Max rot=    0.0063 deg.
 QCNR:  CnvC1=2.57D-09 CnvC2=2.57D-08
 LinEq1:  Iter=  0 NonCon=     1 RMS=2.51D-06 Max=2.56D-05 NDo=     1
 LinEq1:  Iter=  1 NonCon=     1 RMS=1.05D-06 Max=9.26D-06 NDo=     1
 LinEq1:  Iter=  2 NonCon=     1 RMS=1.90D-07 Max=1.33D-06 NDo=     1
 LinEq1:  Iter=  3 NonCon=     1 RMS=5.00D-08 Max=6.16D-07 NDo=     1
 LinEq1:  Iter=  4 NonCon=     1 RMS=1.40D-08 Max=1.66D-07 NDo=     1
 LinEq1:  Iter=  5 NonCon=     1 RMS=2.97D-09 Max=2.61D-08 NDo=     1
 LinEq1:  Iter=  6 NonCon=     0 RMS=6.49D-10 Max=5.26D-09 NDo=     1
 Linear equations converged to 2.575D-09 2.575D-08 after     6 iterations.
 Angle between quadratic step and gradient=  86.80 degrees.
     ILin= 1 X=0.000D+00 Y=-2.504509800936D+01 DE= 0.00D+00 F= -1.99D-07
     ILin= 2 X=1.000D+00 Y=-2.504509797814D+01 DE= 3.12D-08 F=  2.59D-07
     Reject lnstep minimum 4.304D-01 FVal=-2.504509805215D+01 Lims=  0.00D+00  1.00D+00
     ILin= 3 X=4.000D-01 Y=-2.504509805193D+01 DE=-4.26D-08 F= -1.39D-08
     A contracting polynomial of degree  3 produced  0.4319
     Minimum is close to point  3 DX=  3.19D-02 DF= -2.34D-10 DXR=  7.39D-02 DFR=  5.50D-03 which will be used.
 Iteration  14 EE= -25.0450980519251     Delta-E=       -0.000000042563 Grad=3.025D-04 Max rot=    0.0081 deg.
 QCNR:  CnvC1=2.72D-09 CnvC2=2.72D-08
 LinEq1:  Iter=  0 NonCon=     1 RMS=4.21D-06 Max=3.26D-05 NDo=     1
 LinEq1:  Iter=  1 NonCon=     1 RMS=1.32D-06 Max=1.09D-05 NDo=     1
 LinEq1:  Iter=  2 NonCon=     1 RMS=2.52D-07 Max=2.44D-06 NDo=     1
 LinEq1:  Iter=  3 NonCon=     1 RMS=9.18D-08 Max=7.51D-07 NDo=     1
 LinEq1:  Iter=  4 NonCon=     1 RMS=1.69D-08 Max=1.24D-07 NDo=     1
 LinEq1:  Iter=  5 NonCon=     1 RMS=3.47D-09 Max=4.61D-08 NDo=     1
 LinEq1:  Iter=  6 NonCon=     0 RMS=1.20D-09 Max=1.30D-08 NDo=     1
 Linear equations converged to 2.717D-09 2.717D-08 after     6 iterations.
 Angle between quadratic step and gradient=  85.81 degrees.
     ILin= 1 X=0.000D+00 Y=-2.504509805193D+01 DE= 0.00D+00 F= -9.84D-08
     ILin= 2 X=1.000D+00 Y=-2.504509808401D+01 DE=-3.21D-08 F=  3.42D-08
     Accept linear search using points  1 and  2.
     An  expanding polynomial of degree  2 produced  0.7420
 Iteration  15 EE= -25.0450980884231     Delta-E=       -0.000000036498 Grad=2.775D-04 Max rot=    0.0072 deg.
 QCNR:  CnvC1=2.72D-09 CnvC2=2.72D-08
 LinEq1:  Iter=  0 NonCon=     1 RMS=2.73D-06 Max=2.72D-05 NDo=     1
 LinEq1:  Iter=  1 NonCon=     1 RMS=1.02D-06 Max=1.32D-05 NDo=     1
 LinEq1:  Iter=  2 NonCon=     1 RMS=2.14D-07 Max=2.05D-06 NDo=     1
 LinEq1:  Iter=  3 NonCon=     1 RMS=6.27D-08 Max=6.08D-07 NDo=     1
 LinEq1:  Iter=  4 NonCon=     1 RMS=1.15D-08 Max=1.25D-07 NDo=     1
 LinEq1:  Iter=  5 NonCon=     1 RMS=3.61D-09 Max=3.12D-08 NDo=     1
 LinEq1:  Iter=  6 NonCon=     0 RMS=1.00D-09 Max=8.85D-09 NDo=     1
 Linear equations converged to 2.717D-09 2.717D-08 after     6 iterations.
 Angle between quadratic step and gradient=  85.03 degrees.
     ILin= 1 X=0.000D+00 Y=-2.504509808842D+01 DE= 0.00D+00 F= -5.11D-08
     ILin= 2 X=1.000D+00 Y=-2.504509811177D+01 DE=-2.34D-08 F=  4.37D-09
     Accept linear search using points  1 and  2.
     An  expanding polynomial of degree  2 produced  0.9211
     Minimum is close to point  2 DX= -7.89D-02 DF= -1.72D-10 DXR=  8.56D-02 DFR=  7.38D-03 which will be used.
 Iteration  16 EE= -25.0450981117734     Delta-E=       -0.000000023350 Grad=1.058D-04 Max rot=    0.0023 deg.
 QCNR:  CnvC1=1.06D-09 CnvC2=1.06D-08
 LinEq1:  Iter=  0 NonCon=     1 RMS=1.93D-06 Max=1.70D-05 NDo=     1
 LinEq1:  Iter=  1 NonCon=     1 RMS=5.62D-07 Max=4.92D-06 NDo=     1
 LinEq1:  Iter=  2 NonCon=     1 RMS=1.63D-07 Max=1.79D-06 NDo=     1
 LinEq1:  Iter=  3 NonCon=     1 RMS=3.34D-08 Max=3.65D-07 NDo=     1
 LinEq1:  Iter=  4 NonCon=     1 RMS=9.43D-09 Max=1.02D-07 NDo=     1
 LinEq1:  Iter=  5 NonCon=     1 RMS=1.98D-09 Max=2.55D-08 NDo=     1
 LinEq1:  Iter=  6 NonCon=     0 RMS=6.15D-10 Max=4.19D-09 NDo=     1
 Linear equations converged to 1.058D-09 1.058D-08 after     6 iterations.
 Angle between quadratic step and gradient=  84.57 degrees.
     ILin= 1 X=0.000D+00 Y=-2.504509811177D+01 DE= 0.00D+00 F= -4.02D-08
     ILin= 2 X=1.000D+00 Y=-2.504509810674D+01 DE= 5.04D-09 F=  5.02D-08
     Reject lnstep minimum 4.442D-01 FVal=-2.504509812069D+01 Lims=  0.00D+00  1.00D+00
     ILin= 3 X=4.000D-01 Y=-2.504509812060D+01 DE=-8.83D-09 F= -3.99D-09
     A contracting polynomial of degree  3 produced  0.4443
     Minimum is close to point  3 DX=  4.43D-02 DF= -8.86D-11 DXR=  9.97D-02 DFR=  1.00D-02 which will be used.
 Iteration  17 EE= -25.0450981206035     Delta-E=       -0.000000008830 Grad=2.130D-04 Max rot=    0.0062 deg.
 QCNR:  CnvC1=2.13D-09 CnvC2=2.13D-08
 LinEq1:  Iter=  0 NonCon=     1 RMS=1.80D-06 Max=1.25D-05 NDo=     1
 LinEq1:  Iter=  1 NonCon=     1 RMS=6.28D-07 Max=5.76D-06 NDo=     1
 LinEq1:  Iter=  2 NonCon=     1 RMS=1.52D-07 Max=1.96D-06 NDo=     1
 LinEq1:  Iter=  3 NonCon=     1 RMS=4.80D-08 Max=4.69D-07 NDo=     1
 LinEq1:  Iter=  4 NonCon=     1 RMS=6.52D-09 Max=5.95D-08 NDo=     1
 LinEq1:  Iter=  5 NonCon=     0 RMS=8.81D-10 Max=7.45D-09 NDo=     1
 Linear equations converged to 2.130D-09 2.130D-08 after     5 iterations.
 Angle between quadratic step and gradient=  87.66 degrees.
     ILin= 1 X=0.000D+00 Y=-2.504509812060D+01 DE= 0.00D+00 F= -3.35D-08
     ILin= 2 X=1.000D+00 Y=-2.504509814084D+01 DE=-2.02D-08 F= -6.92D-09
     Reject lnstep minimum 1.259D+00 FVal=-2.504509814174D+01 Lims=  0.00D+00  1.00D+00
     ILin= 3 X=2.000D+00 Y=-2.504509813440D+01 DE=-1.38D-08 F=  1.98D-08
     An  expanding polynomial of degree  3 produced  1.2585
 Iteration  18 EE= -25.0450981417382     Delta-E=       -0.000000021135 Grad=6.373D-05 Max rot=    0.0014 deg.
 QCNR:  CnvC1=6.37D-10 CnvC2=6.37D-09
 LinEq1:  Iter=  0 NonCon=     1 RMS=1.56D-06 Max=1.24D-05 NDo=     1
 LinEq1:  Iter=  1 NonCon=     1 RMS=5.49D-07 Max=5.05D-06 NDo=     1
 LinEq1:  Iter=  2 NonCon=     1 RMS=1.01D-07 Max=9.48D-07 NDo=     1
 LinEq1:  Iter=  3 NonCon=     1 RMS=1.76D-08 Max=2.34D-07 NDo=     1
 LinEq1:  Iter=  4 NonCon=     1 RMS=5.76D-09 Max=6.28D-08 NDo=     1
 LinEq1:  Iter=  5 NonCon=     1 RMS=8.51D-10 Max=5.23D-09 NDo=     1
 LinEq1:  Iter=  6 NonCon=     0 RMS=2.08D-10 Max=1.67D-09 NDo=     1
 Linear equations converged to 6.373D-10 6.373D-09 after     6 iterations.
 Angle between quadratic step and gradient=  83.01 degrees.
     ILin= 1 X=0.000D+00 Y=-2.504509814174D+01 DE= 0.00D+00 F= -3.72D-08
     ILin= 2 X=1.000D+00 Y=-2.504509814250D+01 DE=-7.58D-10
 Iteration  19 EE= -25.0450981424961     Delta-E=       -0.000000000758 Grad=3.908D-04 Max rot=    0.0087 deg.
 QCNR:  CnvC1=2.72D-09 CnvC2=2.72D-08
 LinEq1:  Iter=  0 NonCon=     1 RMS=2.83D-06 Max=2.26D-05 NDo=     1
 LinEq1:  Iter=  1 NonCon=     1 RMS=8.70D-07 Max=9.96D-06 NDo=     1
 LinEq1:  Iter=  2 NonCon=     1 RMS=1.50D-07 Max=1.30D-06 NDo=     1
 LinEq1:  Iter=  3 NonCon=     1 RMS=3.86D-08 Max=5.03D-07 NDo=     1
 LinEq1:  Iter=  4 NonCon=     1 RMS=1.23D-08 Max=1.07D-07 NDo=     1
 LinEq1:  Iter=  5 NonCon=     0 RMS=2.36D-09 Max=2.18D-08 NDo=     1
 Linear equations converged to 2.717D-09 2.717D-08 after     5 iterations.
 Angle between quadratic step and gradient=  78.79 degrees.
     ILin= 1 X=0.000D+00 Y=-2.504509814250D+01 DE= 0.00D+00 F= -4.44D-08
     ILin= 2 X=1.000D+00 Y=-2.504509816510D+01 DE=-2.26D-08 F= -8.28D-10
     Reject lnstep minimum 1.019D+00 FVal=-2.504509816510D+01 Lims=  0.00D+00  1.00D+00
     ILin= 3 X=2.000D+00 Y=-2.504509814415D+01 DE=-1.66D-09 F=  4.27D-08
     An  expanding polynomial of degree  3 produced  1.0190
     Minimum is close to point  2 DX=  1.90D-02 DF= -7.89D-12 DXR=  1.87D-02 DFR=  3.49D-04 which will be used.
 Iteration  20 EE= -25.0450981650958     Delta-E=       -0.000000022600 Grad=3.670D-05 Max rot=    0.0007 deg.
 QCNR:  CnvC1=3.67D-10 CnvC2=3.67D-09
 LinEq1:  Iter=  0 NonCon=     1 RMS=6.81D-07 Max=6.31D-06 NDo=     1
 LinEq1:  Iter=  1 NonCon=     1 RMS=1.86D-07 Max=1.43D-06 NDo=     1
 LinEq1:  Iter=  2 NonCon=     1 RMS=5.04D-08 Max=3.61D-07 NDo=     1
 LinEq1:  Iter=  3 NonCon=     1 RMS=1.24D-08 Max=9.75D-08 NDo=     1
 LinEq1:  Iter=  4 NonCon=     1 RMS=2.67D-09 Max=2.66D-08 NDo=     1
 LinEq1:  Iter=  5 NonCon=     1 RMS=3.83D-10 Max=4.25D-09 NDo=     1
 LinEq1:  Iter=  6 NonCon=     0 RMS=1.21D-10 Max=1.23D-09 NDo=     1
 Linear equations converged to 3.670D-10 3.670D-09 after     6 iterations.
 Angle between quadratic step and gradient=  85.74 degrees.
     ILin= 1 X=0.000D+00 Y=-2.504509816510D+01 DE= 0.00D+00 F= -1.03D-08
     ILin= 2 X=1.000D+00 Y=-2.504509815828D+01 DE= 6.81D-09 F=  2.39D-08
     Reject lnstep minimum 3.007D-01 FVal=-2.504509816664D+01 Lims=  0.00D+00  1.00D+00
     ILin= 3 X=3.000D-01 Y=-2.504509816664D+01 DE=-1.55D-09 F= -2.52D-11
     A contracting polynomial of degree  3 produced  0.3008
 Iteration  21 EE= -25.0450981666428     Delta-E=       -0.000000001547 Grad=7.776D-05 Max rot=    0.0019 deg.
 QCNR:  CnvC1=7.78D-10 CnvC2=7.78D-09
 LinEq1:  Iter=  0 NonCon=     1 RMS=7.43D-07 Max=7.59D-06 NDo=     1
 LinEq1:  Iter=  1 NonCon=     1 RMS=2.51D-07 Max=3.00D-06 NDo=     1
 LinEq1:  Iter=  2 NonCon=     1 RMS=5.71D-08 Max=5.84D-07 NDo=     1
 LinEq1:  Iter=  3 NonCon=     1 RMS=1.57D-08 Max=1.64D-07 NDo=     1
 LinEq1:  Iter=  4 NonCon=     1 RMS=3.03D-09 Max=2.54D-08 NDo=     1
 LinEq1:  Iter=  5 NonCon=     1 RMS=7.91D-10 Max=6.27D-09 NDo=     1
 LinEq1:  Iter=  6 NonCon=     0 RMS=2.33D-10 Max=1.84D-09 NDo=     1
 Linear equations converged to 7.776D-10 7.776D-09 after     6 iterations.
 Angle between quadratic step and gradient=  84.97 degrees.
     ILin= 1 X=0.000D+00 Y=-2.504509816664D+01 DE= 0.00D+00 F= -3.26D-09
     ILin= 2 X=1.000D+00 Y=-2.504509816820D+01 DE=-1.56D-09
 Iteration  22 EE= -25.0450981682038     Delta-E=       -0.000000001561 Grad=2.887D-05 Max rot=    0.0006 deg.
 QCNR:  CnvC1=2.89D-10 CnvC2=2.89D-09
 LinEq1:  Iter=  0 NonCon=     1 RMS=3.65D-07 Max=2.89D-06 NDo=     1
 LinEq1:  Iter=  1 NonCon=     1 RMS=1.23D-07 Max=9.38D-07 NDo=     1
 LinEq1:  Iter=  2 NonCon=     1 RMS=3.15D-08 Max=2.61D-07 NDo=     1
 LinEq1:  Iter=  3 NonCon=     1 RMS=7.29D-09 Max=6.39D-08 NDo=     1
 LinEq1:  Iter=  4 NonCon=     1 RMS=1.95D-09 Max=2.25D-08 NDo=     1
 LinEq1:  Iter=  5 NonCon=     1 RMS=4.98D-10 Max=5.28D-09 NDo=     1
 LinEq1:  Iter=  6 NonCon=     0 RMS=1.44D-10 Max=1.65D-09 NDo=     1
 Linear equations converged to 2.887D-10 2.887D-09 after     6 iterations.
 Angle between quadratic step and gradient=  85.64 degrees.
     ILin= 1 X=0.000D+00 Y=-2.504509816820D+01 DE= 0.00D+00 F= -2.63D-09
     ILin= 2 X=1.000D+00 Y=-2.504509816825D+01 DE=-4.81D-11
 Iteration  23 EE= -25.0450981682519     Delta-E=       -0.000000000048 Grad=7.464D-05 Max rot=    0.0019 deg.
 QCNR:  CnvC1=7.46D-10 CnvC2=7.46D-09
 LinEq1:  Iter=  0 NonCon=     1 RMS=9.52D-07 Max=1.09D-05 NDo=     1
 LinEq1:  Iter=  1 NonCon=     1 RMS=2.96D-07 Max=2.91D-06 NDo=     1
 LinEq1:  Iter=  2 NonCon=     1 RMS=6.92D-08 Max=6.78D-07 NDo=     1
 LinEq1:  Iter=  3 NonCon=     1 RMS=1.95D-08 Max=2.02D-07 NDo=     1
 LinEq1:  Iter=  4 NonCon=     1 RMS=3.82D-09 Max=3.12D-08 NDo=     1
 LinEq1:  Iter=  5 NonCon=     1 RMS=8.17D-10 Max=7.00D-09 NDo=     1
 LinEq1:  Iter=  6 NonCon=     0 RMS=2.92D-10 Max=2.40D-09 NDo=     1
 Linear equations converged to 7.464D-10 7.464D-09 after     6 iterations.
 Angle between quadratic step and gradient=  80.81 degrees.
     ILin= 1 X=0.000D+00 Y=-2.504509816825D+01 DE= 0.00D+00 F= -3.91D-09
     ILin= 2 X=1.000D+00 Y=-2.504509817020D+01 DE=-1.94D-09
 Iteration  24 EE= -25.0450981701951     Delta-E=       -0.000000001943 Grad=1.004D-05 Max rot=    0.0002 deg.
 QCNR:  CnvC1=1.00D-10 CnvC2=1.00D-09
 LinEq1:  Iter=  0 NonCon=     1 RMS=1.41D-07 Max=1.16D-06 NDo=     1
 LinEq1:  Iter=  1 NonCon=     1 RMS=5.72D-08 Max=5.15D-07 NDo=     1
 LinEq1:  Iter=  2 NonCon=     1 RMS=1.22D-08 Max=9.51D-08 NDo=     1
 LinEq1:  Iter=  3 NonCon=     1 RMS=2.75D-09 Max=2.86D-08 NDo=     1
 LinEq1:  Iter=  4 NonCon=     1 RMS=7.86D-10 Max=8.61D-09 NDo=     1
 LinEq1:  Iter=  5 NonCon=     1 RMS=1.84D-10 Max=1.60D-09 NDo=     1
 LinEq1:  Iter=  6 NonCon=     0 RMS=5.18D-11 Max=5.98D-10 NDo=     1
 Linear equations converged to 1.004D-10 1.004D-09 after     6 iterations.
 Angle between quadratic step and gradient=  83.45 degrees.
     ILin= 1 X=0.000D+00 Y=-2.504509817020D+01 DE= 0.00D+00 F= -2.39D-09
     ILin= 2 X=1.000D+00 Y=-2.504509816965D+01 DE= 5.50D-10 F=  3.49D-09
     Reject lnstep minimum 4.063D-01 FVal=-2.504509817068D+01 Lims=  0.00D+00  1.00D+00
     ILin= 3 X=4.000D-01 Y=-2.504509817068D+01 DE=-4.85D-10 F= -3.69D-11
     A contracting polynomial of degree  3 produced  0.4065
 Iteration  25 EE= -25.0450981706806     Delta-E=       -0.000000000486 Grad=3.202D-05 Max rot=    0.0009 deg.
 QCNR:  CnvC1=3.20D-10 CnvC2=3.20D-09
 LinEq1:  Iter=  0 NonCon=     1 RMS=4.31D-07 Max=5.15D-06 NDo=     1
 LinEq1:  Iter=  1 NonCon=     1 RMS=1.25D-07 Max=1.16D-06 NDo=     1
 LinEq1:  Iter=  2 NonCon=     1 RMS=2.93D-08 Max=3.36D-07 NDo=     1
 LinEq1:  Iter=  3 NonCon=     1 RMS=9.70D-09 Max=1.15D-07 NDo=     1
 LinEq1:  Iter=  4 NonCon=     1 RMS=1.73D-09 Max=1.86D-08 NDo=     1
 LinEq1:  Iter=  5 NonCon=     0 RMS=3.12D-10 Max=2.73D-09 NDo=     1
 Linear equations converged to 3.202D-10 3.202D-09 after     5 iterations.
 Angle between quadratic step and gradient=  81.81 degrees.
     ILin= 1 X=0.000D+00 Y=-2.504509817068D+01 DE= 0.00D+00 F= -7.90D-10
     ILin= 2 X=1.000D+00 Y=-2.504509817106D+01 DE=-3.78D-10
 Iteration  26 EE= -25.0450981710586     Delta-E=       -0.000000000378 Grad=6.594D-06 Max rot=    0.0001 deg.
 QCNR:  CnvC1=6.59D-11 CnvC2=6.59D-10
 LinEq1:  Iter=  0 NonCon=     1 RMS=9.68D-08 Max=8.49D-07 NDo=     1
 LinEq1:  Iter=  1 NonCon=     1 RMS=4.00D-08 Max=4.15D-07 NDo=     1
 LinEq1:  Iter=  2 NonCon=     1 RMS=6.98D-09 Max=7.33D-08 NDo=     1
 LinEq1:  Iter=  3 NonCon=     1 RMS=1.71D-09 Max=2.52D-08 NDo=     1
 LinEq1:  Iter=  4 NonCon=     1 RMS=4.82D-10 Max=4.16D-09 NDo=     1
 LinEq1:  Iter=  5 NonCon=     1 RMS=1.01D-10 Max=1.04D-09 NDo=     1
 LinEq1:  Iter=  6 NonCon=     0 RMS=2.16D-11 Max=2.38D-10 NDo=     1
 Linear equations converged to 6.594D-11 6.594D-10 after     6 iterations.
 Angle between quadratic step and gradient=  83.57 degrees.
     ILin= 1 X=0.000D+00 Y=-2.504509817106D+01 DE= 0.00D+00 F= -1.25D-09
     ILin= 2 X=1.000D+00 Y=-2.504509817118D+01 DE=-1.17D-10
 Iteration  27 EE= -25.0450981711753     Delta-E=       -0.000000000117 Grad=3.725D-05 Max rot=    0.0010 deg.
 QCNR:  CnvC1=3.72D-10 CnvC2=3.72D-09
 LinEq1:  Iter=  0 NonCon=     1 RMS=5.94D-07 Max=6.54D-06 NDo=     1
 LinEq1:  Iter=  1 NonCon=     1 RMS=1.63D-07 Max=1.80D-06 NDo=     1
 LinEq1:  Iter=  2 NonCon=     1 RMS=3.13D-08 Max=2.58D-07 NDo=     1
 LinEq1:  Iter=  3 NonCon=     1 RMS=7.43D-09 Max=8.80D-08 NDo=     1
 LinEq1:  Iter=  4 NonCon=     1 RMS=1.91D-09 Max=2.04D-08 NDo=     1
 LinEq1:  Iter=  5 NonCon=     0 RMS=2.69D-10 Max=2.99D-09 NDo=     1
 Linear equations converged to 3.725D-10 3.725D-09 after     5 iterations.
 Angle between quadratic step and gradient=  72.21 degrees.
     ILin= 1 X=0.000D+00 Y=-2.504509817118D+01 DE= 0.00D+00 F= -1.14D-09
     ILin= 2 X=1.000D+00 Y=-2.504509817174D+01 DE=-5.63D-10
 Iteration  28 EE= -25.0450981717380     Delta-E=       -0.000000000563 Grad=2.793D-06 Max rot=    0.0001 deg.
 QCNR:  CnvC1=2.79D-11 CnvC2=2.79D-10
 LinEq1:  Iter=  0 NonCon=     1 RMS=2.72D-08 Max=3.02D-07 NDo=     1
 LinEq1:  Iter=  1 NonCon=     1 RMS=7.16D-09 Max=8.14D-08 NDo=     1
 LinEq1:  Iter=  2 NonCon=     1 RMS=1.90D-09 Max=2.23D-08 NDo=     1
 LinEq1:  Iter=  3 NonCon=     1 RMS=4.63D-10 Max=4.34D-09 NDo=     1
 LinEq1:  Iter=  4 NonCon=     1 RMS=1.17D-10 Max=8.68D-10 NDo=     1
 LinEq1:  Iter=  5 NonCon=     0 RMS=2.51D-11 Max=2.23D-10 NDo=     1
 Linear equations converged to 2.793D-11 2.793D-10 after     5 iterations.
 Angle between quadratic step and gradient=  86.69 degrees.
     ILin= 1 X=0.000D+00 Y=-2.504509817174D+01 DE= 0.00D+00 F= -7.01D-12
     ILin= 2 X=1.000D+00 Y=-2.504509817174D+01 DE=-2.97D-12
 Iteration  29 EE= -25.0450981717409     Delta-E=       -0.000000000003 Grad=2.195D-06 Max rot=    0.0001 deg.
 QCNR:  CnvC1=2.20D-11 CnvC2=2.20D-10
 LinEq1:  Iter=  0 NonCon=     1 RMS=2.45D-08 Max=2.18D-07 NDo=     1
 LinEq1:  Iter=  1 NonCon=     1 RMS=7.84D-09 Max=6.09D-08 NDo=     1
 LinEq1:  Iter=  2 NonCon=     1 RMS=2.02D-09 Max=1.71D-08 NDo=     1
 LinEq1:  Iter=  3 NonCon=     1 RMS=4.06D-10 Max=3.23D-09 NDo=     1
 LinEq1:  Iter=  4 NonCon=     1 RMS=1.06D-10 Max=1.40D-09 NDo=     1
 LinEq1:  Iter=  5 NonCon=     1 RMS=2.78D-11 Max=2.82D-10 NDo=     1
 LinEq1:  Iter=  6 NonCon=     0 RMS=7.71D-12 Max=7.61D-11 NDo=     1
 Linear equations converged to 2.195D-11 2.195D-10 after     6 iterations.
 Angle between quadratic step and gradient=  84.28 degrees.
     ILin= 1 X=0.000D+00 Y=-2.504509817174D+01 DE= 0.00D+00 F= -3.53D-12
     ILin= 2 X=1.000D+00 Y=-2.504509817174D+01 DE=-1.80D-12
 Iteration  30 EE= -25.0450981717427     Delta-E=       -0.000000000002 Grad=9.306D-07 Max rot=    0.0000 deg.
 QCNR:  CnvC1=9.31D-12 CnvC2=9.31D-11
 LinEq1:  Iter=  0 NonCon=     1 RMS=1.59D-08 Max=1.57D-07 NDo=     1
 LinEq1:  Iter=  1 NonCon=     1 RMS=4.53D-09 Max=4.30D-08 NDo=     1
 LinEq1:  Iter=  2 NonCon=     1 RMS=1.18D-09 Max=1.49D-08 NDo=     1
 LinEq1:  Iter=  3 NonCon=     1 RMS=3.19D-10 Max=2.84D-09 NDo=     1
 LinEq1:  Iter=  4 NonCon=     1 RMS=6.77D-11 Max=5.51D-10 NDo=     1
 LinEq1:  Iter=  5 NonCon=     1 RMS=1.35D-11 Max=1.17D-10 NDo=     1
 LinEq1:  Iter=  6 NonCon=     0 RMS=4.95D-12 Max=4.84D-11 NDo=     1
 Linear equations converged to 9.306D-12 9.306D-11 after     6 iterations.
 Angle between quadratic step and gradient=  85.04 degrees.
     ILin= 1 X=0.000D+00 Y=-2.504509817174D+01 DE= 0.00D+00 F= -2.02D-12
     ILin= 2 X=1.000D+00 Y=-2.504509817174D+01 DE=-1.13D-12
 Iteration  31 EE= -25.0450981717439     Delta-E=       -0.000000000001 Grad=7.998D-07 Max rot=    0.0000 deg.
 QCNR:  CnvC1=8.00D-12 CnvC2=8.00D-11
 LinEq1:  Iter=  0 NonCon=     1 RMS=1.15D-08 Max=1.12D-07 NDo=     1
 LinEq1:  Iter=  1 NonCon=     1 RMS=4.23D-09 Max=3.53D-08 NDo=     1
 LinEq1:  Iter=  2 NonCon=     1 RMS=8.07D-10 Max=6.25D-09 NDo=     1
 LinEq1:  Iter=  3 NonCon=     1 RMS=2.07D-10 Max=2.40D-09 NDo=     1
 LinEq1:  Iter=  4 NonCon=     1 RMS=5.18D-11 Max=5.78D-10 NDo=     1
 LinEq1:  Iter=  5 NonCon=     1 RMS=1.32D-11 Max=1.18D-10 NDo=     1
 LinEq1:  Iter=  6 NonCon=     0 RMS=3.54D-12 Max=2.80D-11 NDo=     1
 Linear equations converged to 7.998D-12 7.998D-11 after     6 iterations.
 Angle between quadratic step and gradient=  84.50 degrees.
     ILin= 1 X=0.000D+00 Y=-2.504509817174D+01 DE= 0.00D+00 F= -1.41D-12
     ILin= 2 X=1.000D+00 Y=-2.504509817174D+01 DE=-6.04D-13
 Iteration  32 EE= -25.0450981717445     Delta-E=       -0.000000000001 Grad=1.179D-06 Max rot=    0.0000 deg.
 QCNR:  CnvC1=1.18D-11 CnvC2=1.18D-10
 LinEq1:  Iter=  0 NonCon=     1 RMS=1.68D-08 Max=1.33D-07 NDo=     1
 LinEq1:  Iter=  1 NonCon=     1 RMS=4.56D-09 Max=4.00D-08 NDo=     1
 LinEq1:  Iter=  2 NonCon=     1 RMS=1.19D-09 Max=1.25D-08 NDo=     1
 LinEq1:  Iter=  3 NonCon=     1 RMS=3.10D-10 Max=3.46D-09 NDo=     1
 LinEq1:  Iter=  4 NonCon=     1 RMS=8.28D-11 Max=6.19D-10 NDo=     1
 LinEq1:  Iter=  5 NonCon=     1 RMS=1.26D-11 Max=1.09D-10 NDo=     1
 LinEq1:  Iter=  6 NonCon=     0 RMS=3.97D-12 Max=3.48D-11 NDo=     1
 Linear equations converged to 1.179D-11 1.179D-10 after     6 iterations.
 Angle between quadratic step and gradient=  86.02 degrees.
     ILin= 1 X=0.000D+00 Y=-2.504509817174D+01 DE= 0.00D+00 F= -1.59D-12
     ILin= 2 X=1.000D+00 Y=-2.504509817175D+01 DE=-9.24D-13
 Iteration  33 EE= -25.0450981717454     Delta-E=       -0.000000000001 Grad=3.153D-07 Max rot=    0.0000 deg.
 QCNR:  CnvC1=3.15D-12 CnvC2=3.15D-11
 LinEq1:  Iter=  0 NonCon=     1 RMS=6.73D-09 Max=5.90D-08 NDo=     1
 LinEq1:  Iter=  1 NonCon=     1 RMS=2.17D-09 Max=1.86D-08 NDo=     1
 LinEq1:  Iter=  2 NonCon=     1 RMS=4.00D-10 Max=2.60D-09 NDo=     1
 LinEq1:  Iter=  3 NonCon=     1 RMS=1.27D-10 Max=1.11D-09 NDo=     1
 LinEq1:  Iter=  4 NonCon=     1 RMS=2.77D-11 Max=3.91D-10 NDo=     1
 LinEq1:  Iter=  5 NonCon=     1 RMS=7.02D-12 Max=6.17D-11 NDo=     1
 LinEq1:  Iter=  6 NonCon=     0 RMS=1.27D-12 Max=1.16D-11 NDo=     1
 Linear equations converged to 3.153D-12 3.153D-11 after     6 iterations.
 Angle between quadratic step and gradient=  83.04 degrees.
     ILin= 1 X=0.000D+00 Y=-2.504509817175D+01 DE= 0.00D+00 F= -8.70D-13
     ILin= 2 X=1.000D+00 Y=-2.504509817175D+01 DE=-3.66D-13
 Iteration  34 EE= -25.0450981717458     Delta-E=       -0.000000000000 Grad=1.091D-06 Max rot=    0.0000 deg.
 QCNR:  CnvC1=1.09D-11 CnvC2=1.09D-10
 LinEq1:  Iter=  0 NonCon=     1 RMS=1.55D-08 Max=1.43D-07 NDo=     1
 LinEq1:  Iter=  1 NonCon=     1 RMS=3.01D-09 Max=2.53D-08 NDo=     1
 LinEq1:  Iter=  2 NonCon=     1 RMS=8.43D-10 Max=8.95D-09 NDo=     1
 LinEq1:  Iter=  3 NonCon=     1 RMS=2.03D-10 Max=1.84D-09 NDo=     1
 LinEq1:  Iter=  4 NonCon=     1 RMS=5.97D-11 Max=3.87D-10 NDo=     1
 LinEq1:  Iter=  5 NonCon=     0 RMS=8.94D-12 Max=9.10D-11 NDo=     1
 Linear equations converged to 1.091D-11 1.091D-10 after     5 iterations.
 Angle between quadratic step and gradient=  85.71 degrees.
     ILin= 1 X=0.000D+00 Y=-2.504509817175D+01 DE= 0.00D+00 F= -1.09D-12
     ILin= 2 X=1.000D+00 Y=-2.504509817175D+01 DE=-3.34D-13
[...]
         NFxFlg=           0 DoJE=F BraDBF=F KetDBF=F FulRan=T
         wScrn=  0.000000 ICntrl=       600 IOpCl=  0 I1Cent=           0 NGrid=           0
         NMat0=    1 NMatS0=   8001 NMatT0=    0 NMatD0=    1 NMtDS0=    0 NMtDT0=    0
 Petite list used in FoFCou.
 MDV=   104857600 DFT=F DoStab=T Mixed=F DoRPA=F DoScal=F NonHer=F
 Making orbital integer symmetry assigments:
 Orbital symmetries:
 Alpha Orbitals:
       Occupied  (SG) (SG) (SG)
       Virtual   (PI) (PI) (SG) (SG) (PI) (PI) (SG) (SG) (DLTA)
                 (DLTA) (PI) (PI) (SG) (SG) (PI) (PI) (PI) (PI)
                 (SG) (SG) (PHI) (PHI) (DLTA) (DLTA) (DLTA) (DLTA)
                 (PI) (PI) (SG) (PI) (PI) (SG) (SG) (DLTA) (DLTA)
                 (PI) (PI) (SG) (PI) (PI) (SG) (PI) (PI) (SG) (PHI)
                 (PHI) (?A) (?A) (DLTA) (DLTA) (PI) (PI) (DLTA)
                 (DLTA) (PHI) (PHI) (SG) (DLTA) (DLTA) (SG) (PI)
                 (PI) (SG) (PHI) (PHI) (SG) (PI) (PI) (DLTA) (DLTA)
                 (SG) (SG) (PI) (PI) (DLTA) (DLTA) (PI) (PI) (PI)
                 (PI) (SG) (SG) (PI) (PI) (?A) (?A) (PHI) (PHI)
                 (DLTA) (DLTA) (SG) (PI) (PI) (DLTA) (DLTA) (SG)
                 (PHI) (PHI) (DLTA) (DLTA) (PI) (PI) (PI) (PI)
                 (SG) (SG) (PHI) (PHI) (DLTA) (DLTA) (PI) (PI)
                 (SG) (SG) (PI) (PI) (DLTA) (DLTA) (SG) (PI) (PI)
                 (SG) (SG)
 Beta  Orbitals:
       Occupied  (SG) (SG) (SG)
       Virtual   (PI) (PI) (SG) (SG) (PI) (PI) (SG) (SG) (PI) (PI)
                 (DLTA) (DLTA) (SG) (SG) (PI) (PI) (PI) (PI) (SG)
                 (SG) (PHI) (PHI) (DLTA) (DLTA) (PI) (PI) (DLTA)
                 (DLTA) (SG) (PI) (PI) (SG) (SG) (DLTA) (DLTA)
                 (PI) (PI) (SG) (PI) (PI) (SG) (PI) (PI) (SG) (PHI)
                 (PHI) (?A) (?A) (PI) (PI) (DLTA) (DLTA) (DLTA)
                 (DLTA) (SG) (PHI) (PHI) (SG) (PI) (PI) (DLTA)
                 (DLTA) (SG) (PHI) (PHI) (PI) (PI) (SG) (SG) (DLTA)
                 (DLTA) (SG) (PI) (PI) (DLTA) (DLTA) (PI) (PI)
                 (PI) (PI) (SG) (SG) (PI) (PI) (?A) (?A) (PHI)
                 (PHI) (DLTA) (DLTA) (PI) (PI) (SG) (DLTA) (DLTA)
                 (SG) (PHI) (PHI) (DLTA) (DLTA) (PI) (PI) (PI)
                 (PI) (SG) (SG) (PHI) (PHI) (DLTA) (DLTA) (PI)
                 (PI) (SG) (SG) (PI) (PI) (DLTA) (DLTA) (SG) (PI)
                 (PI) (SG) (SG)
    12 initial guesses have been made.
 Convergence on wavefunction:    0.001000000000000
 Davidson Disk Diagonalization:  ConvIn= 1.00D-03 SkipCon=T Conv= 1.00D-03.
 Max sub-space:  1476 roots to seek:    12 dimension of matrix:          738
 Iteration     1 Dimension    12 NMult     0 NNew     12
 CISAX will form    12 AO SS matrices at one time.
 NMat=    12 NSing=    12 JSym2X= 2.
 Excitation Energies [eV] at current iteration:
 Root      1 :     0.520426423167234
 Root      2 :     0.542849371848955
 Root      3 :     1.576359439693332
 Root      4 :     1.620516671789309
 Root      5 :     4.559959302335282
 Root      6 :     6.086126461448059
 Root      7 :     6.948248108550783
 Root      8 :     8.185418063790006
 Root      9 :     8.185716438807120
 Root     10 :     9.000140578076381
 Root     11 :    11.937508215097427
 Root     12 :    11.938202237098679
 Iteration     2 Dimension    24 NMult    12 NNew     12
 CISAX will form    12 AO SS matrices at one time.
 NMat=    12 NSing=    12 JSym2X= 2.
 Root      1 not converged, maximum delta is    0.051008736472761
 Excitation Energies [eV] at current iteration:
 Root      1 :     0.027601332737619   Change is   -0.492825090429615
 Root      2 :     0.029400017525761   Change is   -0.513449354323194
 Root      3 :     1.145694138988095   Change is   -0.430665300705238
 Root      4 :     1.149039739965515   Change is   -0.471476931823794
 Root      5 :     3.663631040543797   Change is   -0.896328261791485
 Root      6 :     5.335945486705014   Change is   -0.750180974743046
 Root      7 :     6.760584757681804   Change is   -2.239555820394577
 Root      8 :     6.843446090618187   Change is   -0.104802017932596
 Root      9 :     7.000502532936165   Change is   -1.185213905870956
 Root     10 :     7.010291147752571   Change is   -1.175126916037436
 Root     11 :     9.064552914629504   Change is   -2.872955300467924
 Root     12 :     9.067256904332069   Change is   -2.870945332766609
 Iteration     3 Dimension    27 NMult    24 NNew      3
 CISAX will form     3 AO SS matrices at one time.
 NMat=     3 NSing=     3 JSym2X= 2.
 Root      1 not converged, maximum delta is    0.007278778932568
 Excitation Energies [eV] at current iteration:
 Root      1 :     0.019975408928610   Change is   -0.007625923809009
 Root      2 :     0.020006294044000   Change is   -0.009393723481761
 Root      3 :     1.134103930404273   Change is   -0.011590208583822
 Iteration     4 Dimension    30 NMult    27 NNew      3
 CISAX will form     3 AO SS matrices at one time.
 NMat=     3 NSing=     3 JSym2X= 2.
 Root      1 has converged.
 Excitation Energies [eV] at current iteration:
 Root      1 :     0.019895736878333   Change is   -0.000079672050277
 Root      2 :     0.019895877865747   Change is   -0.000110416178252
 Root      3 :     1.133691596656334   Change is   -0.000412333747939
 Convergence achieved on expansion vectors.
 ***********************************************************************
 Stability analysis using <AA,BB:AA,BB> singles matrix:
 ***********************************************************************
 1PDM for each excited state written to RWF  633
 Ground to excited state transition densities written to RWF  633

 Eigenvectors of the stability matrix:
 
 Excited state symmetry could not be determined.
 Eigenvector   1:  2.888-?Sym  Eigenvalue= 0.0007312  <S**2>=1.835
      2A ->  4A       -0.20085
      2A ->  9A        0.20564
      2A -> 21A        0.11669
      3A ->  4A       -0.28343
      3A ->  9A        0.26869
      3A -> 21A        0.13184
      2B ->  5B        0.24319
      2B ->  8B       -0.22004
      2B -> 20B       -0.12551
      3B ->  5B        0.56997
      3B ->  8B       -0.45454
      3B -> 20B       -0.18946
 The wavefunction is stable under the perturbations considered.
 Leave Link  914 at Sun May 22 18:35:18 2022, MaxMem=   104857600 cpu:               4.0 elap:               4.0
 (Enter /apps/software/g16/l508.exe)
 The wavefunction is already stable.
 Leave Link  508 at Sun May 22 18:35:18 2022, MaxMem=   104857600 cpu:               0.0 elap:               0.0
 (Enter /apps/software/g16/l601.exe)
 Copying SCF densities to generalized density rwf, IOpCl= 1 IROHF=0.

 **********************************************************************

            Population analysis using the SCF density.

 **********************************************************************

 Orbital symmetries:
 Alpha Orbitals:
       Occupied  (SG) (SG) (SG)
       Virtual   (PI) (PI) (SG) (SG) (PI) (PI) (SG) (SG) (DLTA)
                 (DLTA) (PI) (PI) (SG) (SG) (PI) (PI) (PI) (PI)
                 (SG) (SG) (PHI) (PHI) (DLTA) (DLTA) (DLTA) (DLTA)
                 (PI) (PI) (SG) (PI) (PI) (SG) (SG) (DLTA) (DLTA)
                 (PI) (PI) (SG) (PI) (PI) (SG) (PI) (PI) (SG) (PHI)
                 (PHI) (?A) (?A) (DLTA) (DLTA) (PI) (PI) (DLTA)
                 (DLTA) (PHI) (PHI) (SG) (DLTA) (DLTA) (SG) (PI)
                 (PI) (SG) (PHI) (PHI) (SG) (PI) (PI) (DLTA) (DLTA)
                 (SG) (SG) (PI) (PI) (DLTA) (DLTA) (PI) (PI) (PI)
                 (PI) (SG) (SG) (PI) (PI) (?A) (?A) (PHI) (PHI)
                 (DLTA) (DLTA) (SG) (PI) (PI) (DLTA) (DLTA) (SG)
                 (PHI) (PHI) (DLTA) (DLTA) (PI) (PI) (PI) (PI)
                 (SG) (SG) (PHI) (PHI) (DLTA) (DLTA) (PI) (PI)
                 (SG) (SG) (PI) (PI) (DLTA) (DLTA) (SG) (PI) (PI)
                 (SG) (SG)
 Beta  Orbitals:
       Occupied  (SG) (SG) (SG)
       Virtual   (PI) (PI) (SG) (SG) (PI) (PI) (SG) (SG) (PI) (PI)
                 (DLTA) (DLTA) (SG) (SG) (PI) (PI) (PI) (PI) (SG)
                 (SG) (PHI) (PHI) (DLTA) (DLTA) (PI) (PI) (DLTA)
                 (DLTA) (SG) (PI) (PI) (SG) (SG) (DLTA) (DLTA)
                 (PI) (PI) (SG) (PI) (PI) (SG) (PI) (PI) (SG) (PHI)
                 (PHI) (?A) (?A) (PI) (PI) (DLTA) (DLTA) (DLTA)
                 (DLTA) (SG) (PHI) (PHI) (SG) (PI) (PI) (DLTA)
                 (DLTA) (SG) (PHI) (PHI) (PI) (PI) (SG) (SG) (DLTA)
                 (DLTA) (SG) (PI) (PI) (DLTA) (DLTA) (PI) (PI)
                 (PI) (PI) (SG) (SG) (PI) (PI) (?A) (?A) (PHI)
                 (PHI) (DLTA) (DLTA) (PI) (PI) (SG) (DLTA) (DLTA)
                 (SG) (PHI) (PHI) (DLTA) (DLTA) (PI) (PI) (PI)
                 (PI) (SG) (SG) (PHI) (PHI) (DLTA) (DLTA) (PI)
                 (PI) (SG) (SG) (PI) (PI) (DLTA) (DLTA) (SG) (PI)
                 (PI) (SG) (SG)
 The electronic state is 1-SG.
 Alpha  occ. eigenvalues --   -7.72363  -0.51487  -0.40328
 Alpha virt. eigenvalues --    0.02085   0.02085   0.03363   0.05474   0.07476
 Alpha virt. eigenvalues --    0.07476   0.09260   0.11520   0.14320   0.14320
 Alpha virt. eigenvalues --    0.14322   0.14322   0.19378   0.24598   0.26093
 Alpha virt. eigenvalues --    0.26093   0.31078   0.31078   0.34390   0.37201
 Alpha virt. eigenvalues --    0.45706   0.45706   0.46208   0.46208   0.49201
 Alpha virt. eigenvalues --    0.49201   0.49795   0.49795   0.50994   0.54272
 Alpha virt. eigenvalues --    0.54272   0.56009   0.64150   0.73834   0.73834
 Alpha virt. eigenvalues --    0.80879   0.80879   0.87460   0.93554   0.93554
 Alpha virt. eigenvalues --    0.97974   1.08868   1.08868   1.31833   1.34569
 Alpha virt. eigenvalues --    1.34569   1.36075   1.36075   1.39029   1.39029
 Alpha virt. eigenvalues --    1.39768   1.39768   1.40583   1.40583   1.42762
 Alpha virt. eigenvalues --    1.42762   1.43324   1.47681   1.47681   1.47925
 Alpha virt. eigenvalues --    1.48073   1.48073   1.60768   1.66307   1.66307
 Alpha virt. eigenvalues --    1.71794   1.73040   1.73040   1.96918   1.96918
 Alpha virt. eigenvalues --    1.97550   2.08379   2.13380   2.13380   2.53800
 Alpha virt. eigenvalues --    2.53800   2.69253   2.69253   2.89227   2.89227
 Alpha virt. eigenvalues --    2.94599   3.31227   3.75448   3.75448   3.90283
 Alpha virt. eigenvalues --    3.90283   3.93545   3.93545   3.93716   3.93716
 Alpha virt. eigenvalues --    3.98800   3.99097   3.99097   4.00815   4.00815
 Alpha virt. eigenvalues --    4.02914   4.06735   4.06735   4.11744   4.11744
 Alpha virt. eigenvalues --    4.12357   4.12357   4.31180   4.31180   4.47965
 Alpha virt. eigenvalues --    4.62565   6.60949   6.60949   6.69311   6.69311
 Alpha virt. eigenvalues --    6.77742   6.77742   6.81223   7.69474   8.15471
 Alpha virt. eigenvalues --    8.15471   8.46918   8.46918   8.50647   8.58372
 Alpha virt. eigenvalues --    8.58372   9.02560  13.46225
  Beta  occ. eigenvalues --   -7.73341  -0.55805  -0.33186
  Beta virt. eigenvalues --    0.01797   0.01797   0.03175   0.04820   0.07097
  Beta virt. eigenvalues --    0.07097   0.09098   0.11261   0.14271   0.14271
  Beta virt. eigenvalues --    0.14321   0.14321   0.19338   0.26500   0.27311
  Beta virt. eigenvalues --    0.27311   0.30651   0.30651   0.30903   0.36378
  Beta virt. eigenvalues --    0.45713   0.45713   0.46026   0.46026   0.47683
  Beta virt. eigenvalues --    0.47683   0.49145   0.49145   0.50864   0.54132
  Beta virt. eigenvalues --    0.54132   0.60246   0.64929   0.74741   0.74741
  Beta virt. eigenvalues --    0.84411   0.84411   0.86668   0.94491   0.94491
  Beta virt. eigenvalues --    0.96516   1.08907   1.08907   1.30847   1.34296
  Beta virt. eigenvalues --    1.34296   1.36110   1.36110   1.36262   1.36262
  Beta virt. eigenvalues --    1.38197   1.38197   1.40257   1.40257   1.40330
  Beta virt. eigenvalues --    1.42770   1.42770   1.45925   1.46172   1.46172
  Beta virt. eigenvalues --    1.46900   1.46900   1.61623   1.67069   1.67069
  Beta virt. eigenvalues --    1.72776   1.72776   1.76118   1.96328   1.97389
  Beta virt. eigenvalues --    1.97389   2.11512   2.14816   2.14816   2.56882
  Beta virt. eigenvalues --    2.56882   2.71904   2.71904   2.93397   2.93397
  Beta virt. eigenvalues --    2.96384   3.33877   3.75098   3.75098   3.90315
  Beta virt. eigenvalues --    3.90315   3.92718   3.92718   3.93348   3.93348
  Beta virt. eigenvalues --    3.96302   3.96302   3.96309   3.99423   3.99423
  Beta virt. eigenvalues --    4.00287   4.06654   4.06654   4.10121   4.10121
  Beta virt. eigenvalues --    4.10607   4.10607   4.28750   4.28750   4.45185
  Beta virt. eigenvalues --    4.60375   6.63266   6.63266   6.71512   6.71512
  Beta virt. eigenvalues --    6.79876   6.79876   6.83215   7.75653   8.19997
  Beta virt. eigenvalues --    8.19997   8.50332   8.50332   8.54667   8.61665
  Beta virt. eigenvalues --    8.61665   9.05762  13.45700
          Condensed to atoms (all electrons):
               1          2
     1  B    4.842713   0.062956
     2  H    0.062956   1.031376
          Atomic-Atomic Spin Densities.
               1          2
     1  B   -0.745768  -0.098468
     2  H   -0.098468   0.942705
 Mulliken charges and spin densities:
               1          2
     1  B    0.094332  -0.844236
     2  H   -0.094332   0.844236
 Sum of Mulliken charges =  -0.00000   0.00000
 Mulliken charges and spin densities with hydrogens summed into heavy atoms:
               1          2
     1  B   -0.000000   0.000000
 Electronic spatial extent (au):  <R**2>=             34.2638
 Charge=             -0.0000 electrons
 Dipole moment (field-independent basis, Debye):
    X=              0.0000    Y=              0.0000    Z=              0.7457  Tot=              0.7457
 Quadrupole moment (field-independent basis, Debye-Ang):
   XX=             -7.3059   YY=             -7.3059   ZZ=            -12.1012
   XY=              0.0000   XZ=              0.0000   YZ=              0.0000
 Traceless Quadrupole moment (field-independent basis, Debye-Ang):
   XX=              1.5984   YY=              1.5984   ZZ=             -3.1968
   XY=              0.0000   XZ=              0.0000   YZ=              0.0000
 Octapole moment (field-independent basis, Debye-Ang**2):
  XXX=              0.0000  YYY=              0.0000  ZZZ=              1.7072  XYY=              0.0000
  XXY=              0.0000  XXZ=              0.7368  XZZ=              0.0000  YZZ=              0.0000
  YYZ=              0.7368  XYZ=              0.0000
 Hexadecapole moment (field-independent basis, Debye-Ang**3):
 XXXX=            -10.5895 YYYY=            -10.5895 ZZZZ=            -64.8449 XXXY=              0.0000
 XXXZ=              0.0000 YYYX=              0.0000 YYYZ=              0.0000 ZZZX=              0.0000
 ZZZY=              0.0000 XXYY=             -3.5298 XXZZ=            -11.6040 YYZZ=            -11.6040
 XXYZ=              0.0000 YYXZ=              0.0000 ZZXY=              0.0000
 N-N= 1.202675479364D+00 E-N=-6.019486638121D+01  KE= 2.496442159109D+01
 Symmetry A1   KE= 2.496442159109D+01
 Symmetry A2   KE= 0.000000000000D+00
 Symmetry B1   KE= 0.000000000000D+00
 Symmetry B2   KE= 0.000000000000D+00
 Symmetry A1   SP= 7.264125553453D-15
 Symmetry A2   SP= 0.000000000000D+00
 Symmetry B1   SP= 0.000000000000D+00
 Symmetry B2   SP= 0.000000000000D+00
                          Isotropic Fermi Contact Couplings
        Atom                 a.u.       MegaHertz       Gauss      10(-4) cm-1
     1  B(11)              0.09466      67.88747      24.22394      22.64482
     2  H(1)               0.24402     545.37408     194.60304     181.91721
 --------------------------------------------------------
       Center         ----  Spin Dipole Couplings  ----
                      3XX-RR        3YY-RR        3ZZ-RR
 --------------------------------------------------------
     1   Atom        0.262220      0.262220     -0.524440
     2   Atom        0.021689      0.021689     -0.043378
 --------------------------------------------------------
                        XY            XZ            YZ
 --------------------------------------------------------
     1   Atom        0.000000      0.000000      0.000000
     2   Atom        0.000000      0.000000      0.000000
 --------------------------------------------------------


 ---------------------------------------------------------------------------------
              Anisotropic Spin Dipole Couplings in Principal Axis System
 ---------------------------------------------------------------------------------

       Atom             a.u.   MegaHertz   Gauss  10(-4) cm-1        Axes

              Baa    -0.5244   -89.792   -32.040   -29.951  0.0000  0.0000  1.0000
     1 B(11)  Bbb     0.2622    44.896    16.020    14.976  1.0000  0.0000  0.0000
              Bcc     0.2622    44.896    16.020    14.976 -0.0000  1.0000  0.0000
 
              Baa    -0.0434   -23.145    -8.259    -7.720  0.0000  0.0000  1.0000
     2 H(1)   Bbb     0.0217    11.572     4.129     3.860 -0.0000  1.0000  0.0000
              Bcc     0.0217    11.572     4.129     3.860  1.0000  0.0000  0.0000
 

 ---------------------------------------------------------------------------------

 No NMR shielding tensors so no spin-rotation constants.
 Leave Link  601 at Sun May 22 18:35:18 2022, MaxMem=   104857600 cpu:               0.2 elap:               0.2
 (Enter /apps/software/g16/l9999.exe)
 1\1\GINC-CNODE08\Stability\UHF\Aug-CC-pVQZ\B1H1\LCZ\22-May-2022\0\\#p 
 UHF/aug-cc-pVQZ guess=mix stable=opt\\BH UHF at 2.2 Angstrom\\0,1\B,0,
 0.,0.,0.\H,0,2.2,0.,0.\\Version=ES64L-G16RevA.03\State=1-SG\HF=-25.045
 0982\S2=0.658014\S2-1=0.\S2A=0.029914\RMSD=4.662e-09\Dipole=-0.2933908
 ,0.,0.\Quadrupole=-2.3767752,1.1883876,1.1883876,0.,0.,0.\PG=C*V [C*(H
 1B1)]\\@


 AND HERE I AM, FOR ALL MY LORE,
 THE WRETCHED FOOL I WAS BEFORE.
 CALLED MASTER OF ARTS, AND DOCTOR TO BOOT,
 FOR TEN YEARS ALMOST I CONFUTE
 AND UP AND DOWN, WHEREVER IT GOES
 I DRAG MY STUDENTS BY THE NOSE --
 AND SEE THAT FOR ALL OUR SCIENCE AND ART
 WE CAN KNOW NOTHING.  IT BURNS MY HEART.

                                       -- FAUST
 Job cpu time:       0 days  0 hours  0 minutes 22.5 seconds.
 Elapsed time:       0 days  0 hours  0 minutes 22.5 seconds.
 File lengths (MBytes):  RWF=     33 Int=      0 D2E=      0 Chk=      4 Scr=      1
 Normal termination of Gaussian 16 at Sun May 22 18:35:18 2022.

Sender: Unischeduler System <lcz@mgt01>
Subject: Job 134187: <#!/bin/bash
#BSUB -J intel
#BSUB -o BH-2.2-UHF-G.out
#BSUB -n 8
#BSUB -q cqueue
#BSUB -R span[hosts=1]
export g16root=/apps/software
source /apps/software/g16/bsd/g16.profile
export GAUSS_SCRDIR=/scratch
/apps/software/g16/g16 < BH-2.2-UHF-G.inp > BH-2.2-UHF-G.out> Done

Job <#!/bin/bash
#BSUB -J intel
#BSUB -o BH-2.2-UHF-G.out
#BSUB -n 8
#BSUB -q cqueue
#BSUB -R span[hosts=1]
export g16root=/apps/software
source /apps/software/g16/bsd/g16.profile
export GAUSS_SCRDIR=/scratch
/apps/software/g16/g16 < BH-2.2-UHF-G.inp > BH-2.2-UHF-G.out> was submitted from host <mgt01> by user <lcz>.
Job was executed on host(s) <8*cnode08>, in queue <cqueue>, as user <lcz>.
</apps/users/lcz> was used as the home directory.
</apps/users/lcz/exe13/UCCSD> was used as the working directory.
Started at 2022-05-22 18:34:56
Results reported at 2022-05-22 18:35:18

Your job looked like:

------------------------------------------------------------
# User input
#!/bin/bash
#BSUB -J intel
#BSUB -o BH-2.2-UHF-G.out
#BSUB -n 8
#BSUB -q cqueue
#BSUB -R span[hosts=1]
export g16root=/apps/software
source /apps/software/g16/bsd/g16.profile
export GAUSS_SCRDIR=/scratch
/apps/software/g16/g16 < BH-2.2-UHF-G.inp > BH-2.2-UHF-G.out
------------------------------------------------------------

Successfully completed.

Resource usage summary:

    CPU time   :           17.82 sec.
    Max Memory :               483 MB
    Max Processes  :               5


The output (if any) follows:

