 Entering Gaussian System, Link 0=/apps/software/g16/g16
 Initial command:
 /apps/software/g16/l1.exe "/scratch/Gau-284496.inp" -scrdir="/scratch/"
 Entering Link 1 = /apps/software/g16/l1.exe PID=    284497.
  
 Copyright (c) 1988,1990,1992,1993,1995,1998,2003,2009,2016,
            Gaussian, Inc.  All Rights Reserved.
  
 This is part of the Gaussian(R) 16 program.  It is based on
 the Gaussian(R) 09 system (copyright 2009, Gaussian, Inc.),
 the Gaussian(R) 03 system (copyright 2003, Gaussian, Inc.),
 the Gaussian(R) 98 system (copyright 1998, Gaussian, Inc.),
 the Gaussian(R) 94 system (copyright 1995, Gaussian, Inc.),
 the Gaussian 92(TM) system (copyright 1992, Gaussian, Inc.),
 the Gaussian 90(TM) system (copyright 1990, Gaussian, Inc.),
 the Gaussian 88(TM) system (copyright 1988, Gaussian, Inc.),
 the Gaussian 86(TM) system (copyright 1986, Carnegie Mellon
 University), and the Gaussian 82(TM) system (copyright 1983,
 Carnegie Mellon University). Gaussian is a federally registered
 trademark of Gaussian, Inc.
  
 This software contains proprietary and confidential information,
 including trade secrets, belonging to Gaussian, Inc.
  
 This software is provided under written license and may be
 used, copied, transmitted, or stored only in accord with that
 written license.
  
 The following legend is applicable only to US Government
 contracts under FAR:
  
                    RESTRICTED RIGHTS LEGEND
  
 Use, reproduction and disclosure by the US Government is
 subject to restrictions as set forth in subparagraphs (a)
 and (c) of the Commercial Computer Software - Restricted
 Rights clause in FAR 52.227-19.
  
 Gaussian, Inc.
 340 Quinnipiac St., Bldg. 40, Wallingford CT 06492
  
  
 ---------------------------------------------------------------
 Warning -- This program may not be used in any manner that
 competes with the business of Gaussian, Inc. or will provide
 assistance to any competitor of Gaussian, Inc.  The licensee
 of this program is prohibited from giving any competitor of
 Gaussian, Inc. access to this program.  By using this program,
 the user acknowledges that Gaussian, Inc. is engaged in the
 business of creating and licensing software in the field of
 computational chemistry and represents and warrants to the
 licensee that it is not a competitor of Gaussian, Inc. and that
 it will not use this program in any manner prohibited above.
 ---------------------------------------------------------------
  

 Cite this work as:
 Gaussian 16, Revision A.03,
 M. J. Frisch, G. W. Trucks, H. B. Schlegel, G. E. Scuseria, 
 M. A. Robb, J. R. Cheeseman, G. Scalmani, V. Barone, 
 G. A. Petersson, H. Nakatsuji, X. Li, M. Caricato, A. V. Marenich, 
 J. Bloino, B. G. Janesko, R. Gomperts, B. Mennucci, H. P. Hratchian, 
 J. V. Ortiz, A. F. Izmaylov, J. L. Sonnenberg, D. Williams-Young, 
 F. Ding, F. Lipparini, F. Egidi, J. Goings, B. Peng, A. Petrone, 
 T. Henderson, D. Ranasinghe, V. G. Zakrzewski, J. Gao, N. Rega, 
 G. Zheng, W. Liang, M. Hada, M. Ehara, K. Toyota, R. Fukuda, 
 J. Hasegawa, M. Ishida, T. Nakajima, Y. Honda, O. Kitao, H. Nakai, 
 T. Vreven, K. Throssell, J. A. Montgomery, Jr., J. E. Peralta, 
 F. Ogliaro, M. J. Bearpark, J. J. Heyd, E. N. Brothers, K. N. Kudin, 
 V. N. Staroverov, T. A. Keith, R. Kobayashi, J. Normand, 
 K. Raghavachari, A. P. Rendell, J. C. Burant, S. S. Iyengar, 
 J. Tomasi, M. Cossi, J. M. Millam, M. Klene, C. Adamo, R. Cammi, 
 J. W. Ochterski, R. L. Martin, K. Morokuma, O. Farkas, 
 J. B. Foresman, and D. J. Fox, Gaussian, Inc., Wallingford CT, 2016.
 
 ******************************************
 Gaussian 16:  ES64L-G16RevA.03 25-Dec-2016
                22-May-2022 
 ******************************************
 %oldchk=BH-3.2-UHF-G.chk
 %chk=BH-3.2-UCCSD-G.chk
 Copying data from "BH-3.2-UHF-G.chk" to current chk file "BH-3.2-UCCSD-G.chk"
 IOpt=  2 FromEx=T IUOpen= 4 IOptOp= 5 NList=   0 IFRang= 0 IUIn= 4 IUOut= 2.
 -------------------------------------
 #p UHF/aug-cc-pVQZ guess=read CCSD=FC
 -------------------------------------
 1/38=1,172=1/1;
 2/12=2,17=6,18=5,40=1/2;
 3/5=16,6=2,7=10,11=2,25=1,30=1,116=2/1,2,3;
 4/5=1/1;
 5/5=2,38=6/2;
 8/6=4,9=120000,10=1/1,4;
 9/5=7/13;
 6/7=2,8=2,9=2,10=2/1;
 99/5=1,9=1/99;
 Leave Link    1 at Sun May 22 18:38:42 2022, MaxMem=   104857600 cpu:               0.0 elap:               0.0
 (Enter /apps/software/g16/l101.exe)
 ------------------------
 BH UCCSD at 3.2 Angstrom
 ------------------------
 Symbolic Z-matrix:
 Charge =  0 Multiplicity = 1
 B                     0.        0.        0. 
 H                     3.2       0.        0. 
 
 ITRead=  0  0
 MicOpt= -1 -1
 NAtoms=      2 NQM=        2 NQMF=       0 NMMI=      0 NMMIF=      0
                NMic=       0 NMicF=      0.
                    Isotopes and Nuclear Properties:
 (Nuclear quadrupole moments (NQMom) in fm**2, nuclear magnetic moments (NMagM)
  in nuclear magnetons)

  Atom         1           2
 IAtWgt=          11           1
 AtmWgt=  11.0093053   1.0078250
 NucSpn=           3           1
 AtZEff=  -0.0000000  -0.0000000
 NQMom=    4.0590000   0.0000000
 NMagM=    2.6886370   2.7928460
 AtZNuc=   5.0000000   1.0000000
 Leave Link  101 at Sun May 22 18:38:42 2022, MaxMem=   104857600 cpu:               0.1 elap:               0.1
 (Enter /apps/software/g16/l202.exe)
                          Input orientation:                          
 ---------------------------------------------------------------------
 Center     Atomic      Atomic             Coordinates (Angstroms)
 Number     Number       Type             X           Y           Z
 ---------------------------------------------------------------------
      1          5           0        0.000000    0.000000    0.000000
      2          1           0        3.200000    0.000000    0.000000
 ---------------------------------------------------------------------
 Stoichiometry    BH
 Framework group  C*V[C*(HB)]
 Deg. of freedom     1
 Full point group                 C*V     NOp   4
 Largest Abelian subgroup         C2V     NOp   4
 Largest concise Abelian subgroup C1      NOp   1
                         Standard orientation:                         
 ---------------------------------------------------------------------
 Center     Atomic      Atomic             Coordinates (Angstroms)
 Number     Number       Type             X           Y           Z
 ---------------------------------------------------------------------
      1          5           0        0.000000    0.000000    0.533333
      2          1           0        0.000000    0.000000   -2.666667
 ---------------------------------------------------------------------
 Rotational constants (GHZ):           0.0000000          53.4531073          53.4531073
 Leave Link  202 at Sun May 22 18:38:42 2022, MaxMem=   104857600 cpu:               0.0 elap:               0.0
 (Enter /apps/software/g16/l301.exe)
 Standard basis: Aug-CC-pVQZ (5D, 7F)
 Ernie: Thresh=  0.10000D-02 Tol=  0.10000D-05 Strict=F.
 Ernie:  4 primitive shells out of 54 were deleted.
 There are    68 symmetry adapted cartesian basis functions of A1  symmetry.
 There are    18 symmetry adapted cartesian basis functions of A2  symmetry.
 There are    37 symmetry adapted cartesian basis functions of B1  symmetry.
 There are    37 symmetry adapted cartesian basis functions of B2  symmetry.
 There are    50 symmetry adapted basis functions of A1  symmetry.
 There are    16 symmetry adapted basis functions of A2  symmetry.
 There are    30 symmetry adapted basis functions of B1  symmetry.
 There are    30 symmetry adapted basis functions of B2  symmetry.
   126 basis functions,   180 primitive gaussians,   160 cartesian basis functions
     3 alpha electrons        3 beta electrons
       nuclear repulsion energy         0.8268393921 Hartrees.
 IExCor=    0 DFT=F Ex=HF Corr=None ExCW=0 ScaHFX=  1.000000
 ScaDFX=  1.000000  1.000000  1.000000  1.000000 ScalE2=  1.000000  1.000000
 IRadAn=      5 IRanWt=     -1 IRanGd=            0 ICorTp=0 IEmpDi=  4
 NAtoms=    2 NActive=    2 NUniq=    2 SFac= 1.00D+00 NAtFMM=   60 NAOKFM=F Big=F
 Integral buffers will be    131072 words long.
 Raffenetti 2 integral format.
 Two-electron integral symmetry is turned on.
 Leave Link  301 at Sun May 22 18:38:42 2022, MaxMem=   104857600 cpu:               0.1 elap:               0.1
 (Enter /apps/software/g16/l302.exe)
 NPDir=0 NMtPBC=     1 NCelOv=     1 NCel=       1 NClECP=     1 NCelD=      1
         NCelK=      1 NCelE2=     1 NClLst=     1 CellRange=     0.0.
 One-electron integrals computed using PRISM.
 One-electron integral symmetry used in STVInt
 NBasis=   126 RedAO= T EigKep=  3.34D-03  NBF=    50    16    30    30
 NBsUse=   126 1.00D-06 EigRej= -1.00D+00 NBFU=    50    16    30    30
 Leave Link  302 at Sun May 22 18:38:42 2022, MaxMem=   104857600 cpu:               0.1 elap:               0.1
 (Enter /apps/software/g16/l303.exe)
 DipDrv:  MaxL=1.
 Leave Link  303 at Sun May 22 18:38:42 2022, MaxMem=   104857600 cpu:               0.0 elap:               0.0
 (Enter /apps/software/g16/l401.exe)
 Initial guess from the checkpoint file:  "BH-3.2-UCCSD-G.chk"
 B after Tr=     0.000000    0.000000    0.000000
         Rot=    1.000000    0.000000    0.000000    0.000000 Ang=   0.00 deg.
 Guess basis will be translated and rotated to current coordinates.
 JPrj=2 DoOrth=T DoCkMO=T.
 Initial guess orbital symmetries:
 Alpha Orbitals:
       Occupied  (SG) (SG) (SG)
       Virtual   (PI) (PI) (SG) (SG) (PI) (PI) (SG) (SG) (PI) (PI)
                 (DLTA) (DLTA) (SG) (PI) (PI) (SG) (PI) (PI) (SG)
                 (SG) (PHI) (PHI) (DLTA) (DLTA) (SG) (PI) (PI)
                 (DLTA) (DLTA) (SG) (PI) (PI) (SG) (DLTA) (DLTA)
                 (PI) (PI) (PI) (PI) (SG) (SG) (PI) (PI) (SG) (DLTA)
                 (DLTA) (PI) (PI) (?A) (?A) (SG) (PHI) (PHI) (DLTA)
                 (DLTA) (SG) (PHI) (PHI) (PI) (PI) (DLTA) (DLTA)
                 (SG) (PI) (PI) (PHI) (PHI) (DLTA) (DLTA) (SG)
                 (SG) (PI) (PI) (SG) (DLTA) (DLTA) (PI) (PI) (PI)
                 (PI) (SG) (SG) (PI) (PI) (SG) (?A) (?A) (PHI)
                 (PHI) (DLTA) (DLTA) (DLTA) (DLTA) (PI) (PI) (SG)
                 (PI) (PI) (PHI) (PHI) (DLTA) (DLTA) (PI) (PI)
                 (SG) (SG) (PHI) (PHI) (DLTA) (DLTA) (PI) (PI)
                 (SG) (SG) (PI) (PI) (SG) (DLTA) (DLTA) (PI) (PI)
                 (SG) (SG)
 Beta  Orbitals:
       Occupied  (SG) (SG) (SG)
       Virtual   (PI) (PI) (SG) (SG) (PI) (PI) (SG) (SG) (PI) (PI)
                 (DLTA) (DLTA) (SG) (PI) (PI) (SG) (PI) (PI) (SG)
                 (SG) (DLTA) (DLTA) (PHI) (PHI) (PI) (PI) (SG)
                 (DLTA) (DLTA) (PI) (PI) (SG) (SG) (DLTA) (DLTA)
                 (PI) (PI) (PI) (PI) (SG) (SG) (PI) (PI) (SG) (PI)
                 (PI) (DLTA) (DLTA) (?A) (?A) (SG) (PHI) (PHI)
                 (SG) (PI) (PI) (DLTA) (DLTA) (PHI) (PHI) (DLTA)
                 (DLTA) (SG) (PI) (PI) (PHI) (PHI) (DLTA) (DLTA)
                 (SG) (SG) (PI) (PI) (SG) (DLTA) (DLTA) (PI) (PI)
                 (PI) (PI) (SG) (SG) (PI) (PI) (SG) (?A) (?A) (PHI)
                 (PHI) (DLTA) (DLTA) (DLTA) (DLTA) (PI) (PI) (SG)
                 (PI) (PI) (PHI) (PHI) (DLTA) (DLTA) (PI) (PI)
                 (SG) (SG) (PHI) (PHI) (DLTA) (DLTA) (PI) (PI)
                 (SG) (SG) (PI) (PI) (SG) (DLTA) (DLTA) (PI) (PI)
                 (SG) (SG)
 The electronic state of the initial guess is 1-SG.
 Initial guess <Sx>= 0.0000 <Sy>= 0.0000 <Sz>= 0.0000 <S**2>= 0.9832 S= 0.6105
 Leave Link  401 at Sun May 22 18:38:42 2022, MaxMem=   104857600 cpu:               0.1 elap:               0.1
 (Enter /apps/software/g16/l502.exe)
 Keep R1 and R2 ints in memory in symmetry-blocked form, NReq=40143665.
 FoFCou: FMM=F IPFlag=           0 FMFlag=           0 FMFlg1=           0
         NFxFlg=           0 DoJE=F BraDBF=F KetDBF=F FulRan=T
         wScrn=  0.000000 ICntrl=       600 IOpCl=  0 I1Cent=           0 NGrid=           0
         NMat0=    1 NMatS0=   8001 NMatT0=    0 NMatD0=    1 NMtDS0=    0 NMtDT0=    0
 Petite list used in FoFCou.
 UHF open shell SCF:
 Using DIIS extrapolation, IDIIS=  1040.
 NGot=   104857600 LenX=    88563632 LenY=    88537591
 Requested convergence on RMS density matrix=1.00D-08 within 128 cycles.
 Requested convergence on MAX density matrix=1.00D-06.
 Requested convergence on             energy=1.00D-06.
 No special actions if energy rises.

 Cycle   1  Pass 1  IDiag  1:
 E= -25.0336027714309    
 DIIS: error= 1.49D-08 at cycle   1 NSaved=   1.
 NSaved= 1 IEnMin= 1 EnMin= -25.0336027714309     IErMin= 1 ErrMin= 1.49D-08
 ErrMax= 1.49D-08  0.00D+00 EMaxC= 1.00D-01 BMatC= 3.43D-14 BMatP= 3.43D-14
 IDIUse=1 WtCom= 1.00D+00 WtEn= 0.00D+00
 Coeff-Com:  0.100D+01
 Coeff:      0.100D+01
 Gap=     0.472 Goal=   None    Shift=    0.000
 Gap=     0.342 Goal=   None    Shift=    0.000
 RMSDP=4.05D-10 MaxDP=1.49D-08              OVMax= 1.91D-08

 SCF Done:  E(UHF) =  -25.0336027714     A.U. after    1 cycles
            NFock=  1  Conv=0.40D-09     -V/T= 2.0003
 <Sx>= 0.0000 <Sy>= 0.0000 <Sz>= 0.0000 <S**2>= 0.9832 S= 0.6105
 <L.S>=  0.00000000000    
 KE= 2.502709966905D+01 PE=-5.954885871433D+01 EE= 8.661316881779D+00
 Annihilation of the first spin contaminant:
 S**2 before annihilation     0.9832,   after     0.0826
 Leave Link  502 at Sun May 22 18:38:46 2022, MaxMem=   104857600 cpu:               3.5 elap:               3.5
 (Enter /apps/software/g16/l801.exe)
 Windowed orbitals will be sorted by symmetry type.
 ExpMin= 1.88D-02 ExpMax= 2.39D+04 ExpMxC= 2.30D+02 IAcc=3 IRadAn=         5 AccDes= 0.00D+00
 HarFok:  IExCor=  205 AccDes= 0.00D+00 IRadAn=         5 IDoV=-2 UseB2=F ITyADJ=14
 ICtDFT= 12500011 ScaDFX=  1.000000  1.000000  1.000000  1.000000
 Largest valence mixing into a core orbital is  4.08D-04
 Largest core mixing into a valence orbital is  1.46D-04
 Largest valence mixing into a core orbital is  3.11D-04
 Largest core mixing into a valence orbital is  1.07D-04
 Range of M.O.s used for correlation:     2   126
 NBasis=   126 NAE=     3 NBE=     3 NFC=     1 NFV=     0
 NROrb=    125 NOA=     2 NOB=     2 NVA=   123 NVB=   123
 Leave Link  801 at Sun May 22 18:38:46 2022, MaxMem=   104857600 cpu:               0.1 elap:               0.1
 (Enter /apps/software/g16/l804.exe)
 Open-shell transformation, MDV=   104857600 ITran=4 ISComp=2.
 Unit  1 TFree=        991730 TCopy=        422292.
 Semi-Direct transformation.
 ModeAB=           2 MOrb=             2 LenV=     104170055
 LASXX=       493564 LTotXX=      493564 LenRXX=      493564
 LTotAB=      510115 MaxLAS=     3220000 LenRXY=     3220000
 NonZer=     3355000 LenScr=     5750784 LnRSAI=           0
 LnScr1=           0 LExtra=           0 Total=      9464348
 MaxDsk=          -1 SrtSym=           F ITran=            4
 DoSDTr:  NPSUse=  1
 JobTyp=1 Pass  1:  I=   1 to   2.
 (rs|ai) integrals will be sorted in core.
 Complete sort for first half transformation.
 First half transformation complete.
 Complete sort for second half transformation.
 Second half transformation complete.
 ModeAB=           2 MOrb=             2 LenV=     104170055
 LASXX=       493564 LTotXX=      493564 LenRXX=     3220000
 LTotAB=      492482 MaxLAS=     3220000 LenRXY=      492482
 NonZer=     3355000 LenScr=     5750784 LnRSAI=           0
 LnScr1=           0 LExtra=           0 Total=      9463266
 MaxDsk=          -1 SrtSym=           F ITran=            4
 DoSDTr:  NPSUse=  1
 JobTyp=2 Pass  1:  I=   1 to   2.
 (rs|ai) integrals will be sorted in core.
 Complete sort for first half transformation.
 First half transformation complete.
 Complete sort for second half transformation.
 Second half transformation complete.
 Spin components of T(2) and E(2):
     alpha-alpha T2 =       0.1108354600D-03 E2=     -0.1752779639D-03
     alpha-beta  T2 =       0.2560537305D-01 E2=     -0.4482210922D-01
     beta-beta   T2 =       0.1698919970D-02 E2=     -0.3444483321D-02
 ANorm=    0.1013614882D+01
 E2 =    -0.4844187050D-01 EUMP2 =    -0.25082044641933D+02
 (S**2,0)=  0.98318D+00           (S**2,1)=  0.96718D+00
 E(PUHF)=      -0.25044479032D+02        E(PMP2)=      -0.25092836076D+02
 Leave Link  804 at Sun May 22 18:38:57 2022, MaxMem=   104857600 cpu:              10.3 elap:              10.4
 (Enter /apps/software/g16/l913.exe)
 CIDS:  MDV=   104857600.
 Frozen-core window:  NFC=   1 NFV=   0.
 IFCWin=0 IBDFC=1 NFBD=     0     0 NFCmp=     0     0 NFFFC=     0     0
 Using original routines for 1st iteration.
 Using DD4UQ or CC4UQ for 2nd and later iterations.
 Keep R2 and R3 ints in memory in symmetry-blocked form, NReq=40147367.
 FoFCou: FMM=F IPFlag=           0 FMFlag=           0 FMFlg1=           0
         NFxFlg=           0 DoJE=F BraDBF=F KetDBF=F FulRan=T
         wScrn=  0.000000 ICntrl=       600 IOpCl=  0 I1Cent=           0 NGrid=           0
         NMat0=    1 NMatS0=   8001 NMatT0=    0 NMatD0=    1 NMtDS0=    0 NMtDT0=    0
 Petite list used in FoFCou.
 CIDS: In Core Option IDoMem=           1.
 Coupled Cluster theory with single and double substitutions
 ===========================================================
 Iterations=  50 Convergence= 0.100D-06
 Produce multiple copies of IABC intergrals
 Iteration Nr.   1
 **********************
 DD1Dir will call FoFMem   1 times, MxPair=        10
 NAB=     4 NAA=     1 NBB=     1.
 E(PMP3)=      -0.25104761707D+02
 MP4(R+Q)=  0.12982342D-02
 Maximum subspace dimension=  5
 A-vector RMS=  2.0951261D-03 Max=  1.4464154D-02 conv= 1.00D-05.
 RLE energy=       -0.0621961808
 E3=       -0.12012927D-01        EUMP3=      -0.25094057569D+02
 E4(DQ)=   -0.41328088D-02        UMP4(DQ)=   -0.25098190378D+02
 E4(SDQ)=  -0.44679152D-02        UMP4(SDQ)=  -0.25098525484D+02
 VARIATIONAL ENERGIES WITH THE FIRST-ORDER WAVEFUNCTION:
 DE(Corr)= -0.59154498E-01 E(Corr)=     -25.092757270    
 NORM(A)=   0.10267905D+01
 Iteration Nr.   2
 **********************
 DD1Dir will call FoFMem   1 times, MxPair=        10
 NAB=     4 NAA=     1 NBB=     1.
 A-vector RMS=  8.9422437D-04 Max=  5.8598400D-03 conv= 1.00D-05.
 RLE energy=       -0.0678158315
 DE(Corr)= -0.64991843E-01 E(CORR)=     -25.098594614     Delta=-5.84D-03
 NORM(A)=   0.10353879D+01
 Iteration Nr.   3
 **********************
 DD1Dir will call FoFMem   1 times, MxPair=        10
 NAB=     4 NAA=     1 NBB=     1.
 A-vector RMS=  4.7775204D-04 Max=  3.2521564D-03 conv= 1.00D-05.
 RLE energy=       -0.0682716924
 DE(Corr)= -0.67807777E-01 E(CORR)=     -25.101410549     Delta=-2.82D-03
 NORM(A)=   0.10372611D+01
 Iteration Nr.   4
 **********************
 DD1Dir will call FoFMem   1 times, MxPair=        10
 NAB=     4 NAA=     1 NBB=     1.
 A-vector RMS=  2.1121031D-04 Max=  1.6447675D-03 conv= 1.00D-05.
 RLE energy=       -0.0685105363
 DE(Corr)= -0.68317467E-01 E(CORR)=     -25.101920239     Delta=-5.10D-04
 NORM(A)=   0.10381494D+01
 Iteration Nr.   5
 **********************
 DD1Dir will call FoFMem   1 times, MxPair=        10
 NAB=     4 NAA=     1 NBB=     1.
 A-vector RMS=  1.7764724D-04 Max=  1.5922439D-03 conv= 1.00D-05.
 RLE energy=       -0.0685648311
 DE(Corr)= -0.68473848E-01 E(CORR)=     -25.102076620     Delta=-1.56D-04
 NORM(A)=   0.10394306D+01
 Iteration Nr.   6
 **********************
 DD1Dir will call FoFMem   1 times, MxPair=        10
 NAB=     4 NAA=     1 NBB=     1.
 A-vector RMS=  1.4026391D-04 Max=  1.4233233D-03 conv= 1.00D-05.
 RLE energy=       -0.0687082707
 DE(Corr)= -0.68571195E-01 E(CORR)=     -25.102173966     Delta=-9.73D-05
 NORM(A)=   0.10416705D+01
 Iteration Nr.   7
 **********************
 DD1Dir will call FoFMem   1 times, MxPair=        10
 NAB=     4 NAA=     1 NBB=     1.
 A-vector RMS=  1.6733746D-04 Max=  1.3013301D-03 conv= 1.00D-05.
 RLE energy=       -0.0688757331
 DE(Corr)= -0.68692621E-01 E(CORR)=     -25.102295393     Delta=-1.21D-04
 NORM(A)=   0.10441781D+01
 Iteration Nr.   8
 **********************
 DD1Dir will call FoFMem   1 times, MxPair=        10
 NAB=     4 NAA=     1 NBB=     1.
 A-vector RMS=  1.6755900D-04 Max=  1.3119096D-03 conv= 1.00D-05.
 RLE energy=       -0.0689263063
 DE(Corr)= -0.68829962E-01 E(CORR)=     -25.102432733     Delta=-1.37D-04
 NORM(A)=   0.10463804D+01
 Iteration Nr.   9
 **********************
 DD1Dir will call FoFMem   1 times, MxPair=        10
 NAB=     4 NAA=     1 NBB=     1.
 A-vector RMS=  7.6435196D-05 Max=  4.6880631D-04 conv= 1.00D-05.
 RLE energy=       -0.0689213166
 DE(Corr)= -0.68907750E-01 E(CORR)=     -25.102510522     Delta=-7.78D-05
 NORM(A)=   0.10471994D+01
 Iteration Nr.  10
 **********************
 DD1Dir will call FoFMem   1 times, MxPair=        10
 NAB=     4 NAA=     1 NBB=     1.
 A-vector RMS=  2.8712601D-05 Max=  1.5833829D-04 conv= 1.00D-05.
 RLE energy=       -0.0688935155
 DE(Corr)= -0.68909733E-01 E(CORR)=     -25.102512505     Delta=-1.98D-06
 NORM(A)=   0.10472570D+01
 Iteration Nr.  11
 **********************
 DD1Dir will call FoFMem   1 times, MxPair=        10
 NAB=     4 NAA=     1 NBB=     1.
 A-vector RMS=  1.4585754D-05 Max=  1.0822128D-04 conv= 1.00D-05.
 RLE energy=       -0.0688843469
 DE(Corr)= -0.68892934E-01 E(CORR)=     -25.102495705     Delta= 1.68D-05
 NORM(A)=   0.10472744D+01
 Iteration Nr.  12
 **********************
 DD1Dir will call FoFMem   1 times, MxPair=        10
 NAB=     4 NAA=     1 NBB=     1.
 A-vector RMS=  6.1017290D-06 Max=  6.3811805D-05 conv= 1.00D-05.
 RLE energy=       -0.0688815137
 DE(Corr)= -0.68884751E-01 E(CORR)=     -25.102487522     Delta= 8.18D-06
 NORM(A)=   0.10472667D+01
 Iteration Nr.  13
 **********************
 DD1Dir will call FoFMem   1 times, MxPair=        10
 NAB=     4 NAA=     1 NBB=     1.
 A-vector RMS=  3.9391731D-06 Max=  3.5822897D-05 conv= 1.00D-05.
 RLE energy=       -0.0688819600
 DE(Corr)= -0.68882532E-01 E(CORR)=     -25.102485303     Delta= 2.22D-06
 NORM(A)=   0.10472636D+01
 Iteration Nr.  14
 **********************
 DD1Dir will call FoFMem   1 times, MxPair=        10
 NAB=     4 NAA=     1 NBB=     1.
 A-vector RMS=  2.0343002D-06 Max=  1.7055518D-05 conv= 1.00D-05.
 RLE energy=       -0.0688822630
 DE(Corr)= -0.68882381E-01 E(CORR)=     -25.102485152     Delta= 1.51D-07
 NORM(A)=   0.10472551D+01
 Iteration Nr.  15
 **********************
 DD1Dir will call FoFMem   1 times, MxPair=        10
 NAB=     4 NAA=     1 NBB=     1.
 A-vector RMS=  1.6521609D-06 Max=  1.1533737D-05 conv= 1.00D-05.
 RLE energy=       -0.0688823499
 DE(Corr)= -0.68882530E-01 E(CORR)=     -25.102485301     Delta=-1.49D-07
 NORM(A)=   0.10472476D+01
 Iteration Nr.  16
 **********************
 DD1Dir will call FoFMem   1 times, MxPair=        10
 NAB=     4 NAA=     1 NBB=     1.
 A-vector RMS=  1.0954151D-06 Max=  8.0781986D-06 conv= 1.00D-05.
 RLE energy=       -0.0688820946
 DE(Corr)= -0.68882506E-01 E(CORR)=     -25.102485278     Delta= 2.33D-08
 NORM(A)=   0.10472390D+01
 CI/CC converged in   16 iterations to DelEn= 2.33D-08 Conv= 1.00D-07 ErrA1= 1.10D-06 Conv= 1.00D-05
 Wavefunction amplitudes converged. E(Corr)=     -25.102485278    
 Largest amplitude= 6.69D-02

 S**2, projected HF & approx projected MPn energies after annihilation of
 unwanted spin states (see manual for definitions):

 spins       (S**2,0) (S**2,1)    PUHF        PMP2        PMP3        PMP4
 annihilated
 s+1        -0.04217 -0.00770  -25.044479  -25.092836  -25.104762
 s+1,s+2     0.00000 -0.00000  -25.039710  -25.088120  -25.100095

 Discarding MO integrals.
 Leave Link  913 at Sun May 22 18:39:01 2022, MaxMem=   104857600 cpu:               4.9 elap:               4.9
 (Enter /apps/software/g16/l601.exe)
 Copying SCF densities to generalized density rwf, IOpCl= 1 IROHF=0.

 **********************************************************************

            Population analysis using the SCF density.

 **********************************************************************

 Orbital symmetries:
 Alpha Orbitals:
       Occupied  (SG) (SG) (SG)
       Virtual   (PI) (PI) (SG) (SG) (PI) (PI) (SG) (SG) (PI) (PI)
                 (DLTA) (DLTA) (SG) (PI) (PI) (SG) (PI) (PI) (SG)
                 (SG) (PHI) (PHI) (DLTA) (DLTA) (SG) (PI) (PI)
                 (DLTA) (DLTA) (SG) (PI) (PI) (SG) (DLTA) (DLTA)
                 (PI) (PI) (PI) (PI) (SG) (SG) (PI) (PI) (SG) (DLTA)
                 (DLTA) (PI) (PI) (?A) (?A) (SG) (PHI) (PHI) (DLTA)
                 (DLTA) (SG) (PHI) (PHI) (PI) (PI) (DLTA) (DLTA)
                 (SG) (PI) (PI) (PHI) (PHI) (DLTA) (DLTA) (SG)
                 (SG) (PI) (PI) (SG) (DLTA) (DLTA) (PI) (PI) (PI)
                 (PI) (SG) (SG) (PI) (PI) (SG) (?A) (?A) (PHI)
                 (PHI) (DLTA) (DLTA) (DLTA) (DLTA) (PI) (PI) (SG)
                 (PI) (PI) (PHI) (PHI) (DLTA) (DLTA) (PI) (PI)
                 (SG) (SG) (PHI) (PHI) (DLTA) (DLTA) (PI) (PI)
                 (SG) (SG) (PI) (PI) (SG) (DLTA) (DLTA) (PI) (PI)
                 (SG) (SG)
 Beta  Orbitals:
       Occupied  (SG) (SG) (SG)
       Virtual   (PI) (PI) (SG) (SG) (PI) (PI) (SG) (SG) (PI) (PI)
                 (DLTA) (DLTA) (SG) (PI) (PI) (SG) (PI) (PI) (SG)
                 (SG) (DLTA) (DLTA) (PHI) (PHI) (PI) (PI) (SG)
                 (DLTA) (DLTA) (PI) (PI) (SG) (SG) (DLTA) (DLTA)
                 (PI) (PI) (PI) (PI) (SG) (SG) (PI) (PI) (SG) (PI)
                 (PI) (DLTA) (DLTA) (?A) (?A) (SG) (PHI) (PHI)
                 (SG) (PI) (PI) (DLTA) (DLTA) (PHI) (PHI) (DLTA)
                 (DLTA) (SG) (PI) (PI) (PHI) (PHI) (DLTA) (DLTA)
                 (SG) (SG) (PI) (PI) (SG) (DLTA) (DLTA) (PI) (PI)
                 (PI) (PI) (SG) (SG) (PI) (PI) (SG) (?A) (?A) (PHI)
                 (PHI) (DLTA) (DLTA) (DLTA) (DLTA) (PI) (PI) (SG)
                 (PI) (PI) (PHI) (PHI) (DLTA) (DLTA) (PI) (PI)
                 (SG) (SG) (PHI) (PHI) (DLTA) (DLTA) (PI) (PI)
                 (SG) (SG) (PI) (PI) (SG) (DLTA) (DLTA) (PI) (PI)
                 (SG) (SG)
 The electronic state is 1-SG.
 Alpha  occ. eigenvalues --   -7.69063  -0.49040  -0.44609
 Alpha virt. eigenvalues --    0.02620   0.02620   0.04025   0.05485   0.08284
 Alpha virt. eigenvalues --    0.08284   0.08330   0.11465   0.14402   0.14402
 Alpha virt. eigenvalues --    0.14515   0.14515   0.18700   0.23061   0.23061
 Alpha virt. eigenvalues --    0.26637   0.32036   0.32036   0.35539   0.36236
 Alpha virt. eigenvalues --    0.46090   0.46090   0.46203   0.46203   0.46288
 Alpha virt. eigenvalues --    0.49621   0.49621   0.50030   0.50030   0.52690
 Alpha virt. eigenvalues --    0.52788   0.52788   0.59771   0.65452   0.65452
 Alpha virt. eigenvalues --    0.76196   0.76196   0.81544   0.81544   0.85462
 Alpha virt. eigenvalues --    0.94699   1.05752   1.05752   1.15166   1.36673
 Alpha virt. eigenvalues --    1.36673   1.36693   1.36693   1.36832   1.36832
 Alpha virt. eigenvalues --    1.37991   1.38104   1.38104   1.41381   1.41381
 Alpha virt. eigenvalues --    1.43635   1.43734   1.43734   1.45247   1.45247
 Alpha virt. eigenvalues --    1.46467   1.46467   1.51363   1.53581   1.53581
 Alpha virt. eigenvalues --    1.57195   1.57195   1.64481   1.64481   1.67711
 Alpha virt. eigenvalues --    1.74945   1.84478   1.84478   1.92110   2.47492
 Alpha virt. eigenvalues --    2.47492   2.57169   2.57169   2.59488   2.59488
 Alpha virt. eigenvalues --    2.68423   2.80782   3.74284   3.74284   3.85863
 Alpha virt. eigenvalues --    3.91803   3.91803   3.94331   3.94331   3.95861
 Alpha virt. eigenvalues --    3.95861   3.97204   3.97204   3.99632   3.99632
 Alpha virt. eigenvalues --    4.01362   4.06893   4.06893   4.08609   4.08609
 Alpha virt. eigenvalues --    4.12205   4.12205   4.16322   4.16322   4.21626
 Alpha virt. eigenvalues --    4.28691   6.56364   6.56364   6.57705   6.57705
 Alpha virt. eigenvalues --    6.63057   6.63057   6.67462   7.49177   7.96133
 Alpha virt. eigenvalues --    7.96133   8.10442   8.40849   8.40849   8.46916
 Alpha virt. eigenvalues --    8.46916   8.56819  13.11659
  Beta  occ. eigenvalues --   -7.70520  -0.54702  -0.31979
  Beta virt. eigenvalues --    0.02269   0.02269   0.02551   0.04763   0.07611
  Beta virt. eigenvalues --    0.07611   0.08257   0.10653   0.14468   0.14468
  Beta virt. eigenvalues --    0.14513   0.14513   0.18800   0.24597   0.24597
  Beta virt. eigenvalues --    0.26846   0.31288   0.31288   0.31674   0.36202
  Beta virt. eigenvalues --    0.45938   0.45938   0.46097   0.46097   0.47781
  Beta virt. eigenvalues --    0.47781   0.49493   0.49921   0.49921   0.51393
  Beta virt. eigenvalues --    0.51393   0.53440   0.59557   0.66623   0.66623
  Beta virt. eigenvalues --    0.79123   0.79123   0.85831   0.85831   0.89851
  Beta virt. eigenvalues --    0.93258   1.04863   1.04863   1.10196   1.35976
  Beta virt. eigenvalues --    1.35976   1.36182   1.36182   1.36859   1.36859
  Beta virt. eigenvalues --    1.36971   1.37609   1.37609   1.39523   1.40489
  Beta virt. eigenvalues --    1.40489   1.40822   1.40822   1.43684   1.43684
  Beta virt. eigenvalues --    1.44909   1.44909   1.48558   1.51402   1.51402
  Beta virt. eigenvalues --    1.58406   1.58406   1.65354   1.65354   1.70688
  Beta virt. eigenvalues --    1.80145   1.85030   1.85030   1.92767   2.51370
  Beta virt. eigenvalues --    2.51370   2.61333   2.61333   2.66240   2.66240
  Beta virt. eigenvalues --    2.72738   2.85384   3.73610   3.73610   3.81705
  Beta virt. eigenvalues --    3.91745   3.91745   3.93265   3.93265   3.95134
  Beta virt. eigenvalues --    3.95134   3.95616   3.95616   3.96044   3.96044
  Beta virt. eigenvalues --    3.97566   4.04697   4.04697   4.08363   4.08363
  Beta virt. eigenvalues --    4.10110   4.10110   4.13094   4.13094   4.18120
  Beta virt. eigenvalues --    4.25443   6.59225   6.59225   6.60548   6.60548
  Beta virt. eigenvalues --    6.65856   6.65856   6.70246   7.57158   8.01862
  Beta virt. eigenvalues --    8.01862   8.15974   8.45033   8.45033   8.51053
  Beta virt. eigenvalues --    8.51053   8.60903  13.10572
          Condensed to atoms (all electrons):
               1          2
     1  B    4.992186  -0.000196
     2  H   -0.000196   1.008205
          Atomic-Atomic Spin Densities.
               1          2
     1  B   -0.987887  -0.009032
     2  H   -0.009032   1.005951
 Mulliken charges and spin densities:
               1          2
     1  B    0.008009  -0.996919
     2  H   -0.008009   0.996919
 Sum of Mulliken charges =   0.00000   0.00000
 Mulliken charges and spin densities with hydrogens summed into heavy atoms:
               1          2
     1  B    0.000000   0.000000
 Electronic spatial extent (au):  <R**2>=             49.5920
 Charge=              0.0000 electrons
 Dipole moment (field-independent basis, Debye):
    X=              0.0000    Y=              0.0000    Z=              0.1620  Tot=              0.1620
 Quadrupole moment (field-independent basis, Debye-Ang):
   XX=             -7.3142   YY=             -7.3142   ZZ=            -11.0873
   XY=              0.0000   XZ=              0.0000   YZ=              0.0000
 Traceless Quadrupole moment (field-independent basis, Debye-Ang):
   XX=              1.2577   YY=              1.2577   ZZ=             -2.5154
   XY=              0.0000   XZ=              0.0000   YZ=              0.0000
 Octapole moment (field-independent basis, Debye-Ang**2):
  XXX=              0.0000  YYY=              0.0000  ZZZ=             -2.3332  XYY=              0.0000
  XXY=              0.0000  XXZ=              0.5300  XZZ=              0.0000  YZZ=              0.0000
  YYZ=              0.5300  XYZ=              0.0000
 Hexadecapole moment (field-independent basis, Debye-Ang**3):
 XXXX=            -10.7431 YYYY=            -10.7431 ZZZZ=           -100.3977 XXXY=              0.0000
 XXXZ=              0.0000 YYYX=              0.0000 YYYZ=              0.0000 ZZZX=              0.0000
 ZZZY=              0.0000 XXYY=             -3.5810 XXZZ=            -16.8875 YYZZ=            -16.8875
 XXYZ=              0.0000 YYXZ=              0.0000 ZZXY=              0.0000
 N-N= 8.268393920625D-01 E-N=-5.954885871667D+01  KE= 2.502709966905D+01
 Symmetry A1   KE= 2.502709966905D+01
 Symmetry A2   KE= 2.648156998135D-50
 Symmetry B1   KE= 0.000000000000D+00
 Symmetry B2   KE= 0.000000000000D+00
 Symmetry A1   SP= 7.107553230197D-15
 Symmetry A2   SP= 6.831602301279D-51
 Symmetry B1   SP= 0.000000000000D+00
 Symmetry B2   SP= 0.000000000000D+00
 Leave Link  601 at Sun May 22 18:39:02 2022, MaxMem=   104857600 cpu:               0.1 elap:               0.1
 (Enter /apps/software/g16/l9999.exe)
 1\1\GINC-CNODE08\SP\UCCSD-FC\Aug-CC-pVQZ\B1H1\LCZ\22-May-2022\0\\#p UH
 F/aug-cc-pVQZ guess=read CCSD=FC\\BH UCCSD at 3.2 Angstrom\\0,1\B,0,0.
 ,0.,0.\H,0,3.2,0.,0.\\Version=ES64L-G16RevA.03\State=1-SG\HF=-25.03360
 28\MP2=-25.0820446\MP3=-25.0940576\MP4D=-25.0994886\MP4DQ=-25.0981904\
 PUHF=-25.044479\PMP2-0=-25.0928361\PMP3-0=-25.1047617\MP4SDQ=-25.09852
 55\CCSD=-25.1024853\S2=0.983178\S2-1=0.967184\S2A=0.082599\RMSD=4.046e
 -10\PG=C*V [C*(H1B1)]\\@


 ADVERTISING--  HE WHO HAS SOMETHING TO SELL AND GOES AND WHISPERS
                IN A WELL, IS NOT SO APT TO GET THE DOLLARS AS HE
                WHO CLIMBS A TREE AND HOLLERS.

                   -- FROM THE BACK OF A SUGAR PACKET
 Job cpu time:       0 days  0 hours  0 minutes 19.6 seconds.
 Elapsed time:       0 days  0 hours  0 minutes 19.6 seconds.
 File lengths (MBytes):  RWF=    140 Int=      0 D2E=      0 Chk=     67 Scr=      1
 Normal termination of Gaussian 16 at Sun May 22 18:39:02 2022.

Sender: Unischeduler System <lcz@mgt01>
Subject: Job 134221: <#!/bin/bash
#BSUB -J intel
#BSUB -o BH-3.2-UCCSD-G.out
#BSUB -n 8
#BSUB -q cqueue
#BSUB -R span[hosts=1]
export g16root=/apps/software
source /apps/software/g16/bsd/g16.profile
export GAUSS_SCRDIR=/scratch
/apps/software/g16/g16 < BH-3.2-UCCSD-G.inp > BH-3.2-UCCSD-G.out> Done

Job <#!/bin/bash
#BSUB -J intel
#BSUB -o BH-3.2-UCCSD-G.out
#BSUB -n 8
#BSUB -q cqueue
#BSUB -R span[hosts=1]
export g16root=/apps/software
source /apps/software/g16/bsd/g16.profile
export GAUSS_SCRDIR=/scratch
/apps/software/g16/g16 < BH-3.2-UCCSD-G.inp > BH-3.2-UCCSD-G.out> was submitted from host <mgt01> by user <lcz>.
Job was executed on host(s) <8*cnode08>, in queue <cqueue>, as user <lcz>.
</apps/users/lcz> was used as the home directory.
</apps/users/lcz/exe13/UCCSD> was used as the working directory.
Started at 2022-05-22 18:38:42
Results reported at 2022-05-22 18:39:02

Your job looked like:

------------------------------------------------------------
# User input
#!/bin/bash
#BSUB -J intel
#BSUB -o BH-3.2-UCCSD-G.out
#BSUB -n 8
#BSUB -q cqueue
#BSUB -R span[hosts=1]
export g16root=/apps/software
source /apps/software/g16/bsd/g16.profile
export GAUSS_SCRDIR=/scratch
/apps/software/g16/g16 < BH-3.2-UCCSD-G.inp > BH-3.2-UCCSD-G.out
------------------------------------------------------------

Successfully completed.

Resource usage summary:

    CPU time   :           14.92 sec.
    Max Memory :               453 MB
    Max Processes  :               5


The output (if any) follows:

