
                                        *****************
                                        * O   R   C   A *
                                        *****************

                                            #,                                       
                                            ###                                      
                                            ####                                     
                                            #####                                    
                                            ######                                   
                                           ########,                                 
                                     ,,################,,,,,                         
                               ,,#################################,,                 
                          ,,##########################################,,             
                       ,#########################################, ''#####,          
                    ,#############################################,,   '####,        
                  ,##################################################,,,,####,       
                ,###########''''           ''''###############################       
              ,#####''   ,,,,##########,,,,          '''####'''          '####       
            ,##' ,,,,###########################,,,                        '##       
           ' ,,###''''                  '''############,,,                           
         ,,##''                                '''############,,,,        ,,,,,,###''
      ,#''                                            '''#######################'''  
     '                                                          ''''####''''         
             ,#######,   #######,   ,#######,      ##                                
            ,#'     '#,  ##    ##  ,#'     '#,    #''#        ######   ,####,        
            ##       ##  ##   ,#'  ##            #'  '#       #        #'  '#        
            ##       ##  #######   ##           ,######,      #####,   #    #        
            '#,     ,#'  ##    ##  '#,     ,#' ,#      #,         ##   #,  ,#        
             '#######'   ##     ##  '#######'  #'      '#     #####' # '####'        



                  #######################################################
                  #                        -***-                        #
                  #          Department of theory and spectroscopy      #
                  #    Directorship and core code : Frank Neese         #
                  #        Max Planck Institute fuer Kohlenforschung    #
                  #                Kaiser Wilhelm Platz 1               #
                  #                 D-45470 Muelheim/Ruhr               #
                  #                      Germany                        #
                  #                                                     #
                  #                  All rights reserved                #
                  #                        -***-                        #
                  #######################################################


                         Program Version 5.0.0 -  RELEASE  -
                                (SVN: $Rev: 19529$)
                ($Date: 2021-06-28 11:36:33 +0200 (Mo, 28 Jun 2021) $)


 With contributions from (in alphabetic order):
   Daniel Aravena         : Magnetic Suceptibility
   Michael Atanasov       : Ab Initio Ligand Field Theory (pilot matlab implementation)
   Alexander A. Auer      : GIAO ZORA, VPT2 properties, NMR spectrum
   Ute Becker             : Parallelization
   Giovanni Bistoni       : ED, misc. LED, open-shell LED, HFLD
   Martin Brehm           : Molecular dynamics
   Dmytro Bykov           : SCF Hessian
   Vijay G. Chilkuri      : MRCI spin determinant printing, contributions to CSF-ICE
   Dipayan Datta          : RHF DLPNO-CCSD density
   Achintya Kumar Dutta   : EOM-CC, STEOM-CC
   Dmitry Ganyushin       : Spin-Orbit,Spin-Spin,Magnetic field MRCI
   Miquel Garcia          : C-PCM Hessian, Gaussian charge scheme
   Yang Guo               : DLPNO-NEVPT2, F12-NEVPT2, CIM, IAO-localization
   Andreas Hansen         : Spin unrestricted coupled pair/coupled cluster methods
   Benjamin Helmich-Paris : MC-RPA, TRAH-SCF, COSX integrals
   Lee Huntington         : MR-EOM, pCC
   Robert Izsak           : Overlap fitted RIJCOSX, COSX-SCS-MP3, EOM
   Marcus Kettner         : VPT2
   Christian Kollmar      : KDIIS, OOCD, Brueckner-CCSD(T), CCSD density, CASPT2, CASPT2-K
   Simone Kossmann        : Meta GGA functionals, TD-DFT gradient, OOMP2, MP2 Hessian
   Martin Krupicka        : Initial AUTO-CI
   Lucas Lang             : DCDCAS
   Marvin Lechner         : AUTO-CI (C++ implementation), FIC-MRCC
   Dagmar Lenk            : GEPOL surface, SMD
   Dimitrios Liakos       : Extrapolation schemes; Compound Job, initial MDCI parallelization
   Dimitrios Manganas     : Further ROCIS development; embedding schemes
   Dimitrios Pantazis     : SARC Basis sets
   Anastasios Papadopoulos: AUTO-CI, single reference methods and gradients
   Taras Petrenko         : DFT Hessian,TD-DFT gradient, ASA, ECA, R-Raman, ABS, FL, XAS/XES, NRVS
   Peter Pinski           : DLPNO-MP2, DLPNO-MP2 Gradient
   Christoph Reimann      : Effective Core Potentials
   Marius Retegan         : Local ZFS, SOC
   Christoph Riplinger    : Optimizer, TS searches, QM/MM, DLPNO-CCSD(T), (RO)-DLPNO pert. Triples
   Tobias Risthaus        : Range-separated hybrids, TD-DFT gradient, RPA, STAB
   Michael Roemelt        : Original ROCIS implementation
   Masaaki Saitow         : Open-shell DLPNO-CCSD energy and density
   Barbara Sandhoefer     : DKH picture change effects
   Avijit Sen             : IP-ROCIS
   Kantharuban Sivalingam : CASSCF convergence, NEVPT2, FIC-MRCI
   Bernardo de Souza      : ESD, SOC TD-DFT
   Georgi Stoychev        : AutoAux, RI-MP2 NMR
   Willem Van den Heuvel  : Paramagnetic NMR
   Boris Wezisla          : Elementary symmetry handling
   Frank Wennmohs         : Technical directorship


 We gratefully acknowledge several colleagues who have allowed us to
 interface, adapt or use parts of their codes:
   Stefan Grimme, W. Hujo, H. Kruse, P. Pracht,  : VdW corrections, initial TS optimization,
                  C. Bannwarth, S. Ehlert          DFT functionals, gCP, sTDA/sTD-DF
   Ed Valeev, F. Pavosevic, A. Kumar             : LibInt (2-el integral package), F12 methods
   Garnet Chan, S. Sharma, J. Yang, R. Olivares  : DMRG
   Ulf Ekstrom                                   : XCFun DFT Library
   Mihaly Kallay                                 : mrcc  (arbitrary order and MRCC methods)
   Jiri Pittner, Ondrej Demel                    : Mk-CCSD
   Frank Weinhold                                : gennbo (NPA and NBO analysis)
   Christopher J. Cramer and Donald G. Truhlar   : smd solvation model
   Lars Goerigk                                  : TD-DFT with DH, B97 family of functionals
   V. Asgeirsson, H. Jonsson                     : NEB implementation
   FAccTs GmbH                                   : IRC, NEB, NEB-TS, DLPNO-Multilevel, CI-OPT
                                                   MM, QMMM, 2- and 3-layer-ONIOM, Crystal-QMMM,
                                                   LR-CPCM, SF, NACMEs, symmetry and pop. for TD-DFT,
                                                   nearIR, NL-DFT gradient (VV10), updates on ESD,
                                                   ML-optimized integration grids
   S Lehtola, MJT Oliveira, MAL Marques          : LibXC Library
   Liviu Ungur et al                             : ANISO software


 Your calculation uses the libint2 library for the computation of 2-el integrals
 For citations please refer to: http://libint.valeyev.net

 Your ORCA version has been built with support for libXC version: 5.1.0
 For citations please refer to: https://tddft.org/programs/libxc/

 This ORCA versions uses:
   CBLAS   interface :  Fast vector & matrix operations
   LAPACKE interface :  Fast linear algebra routines
   SCALAPACK package :  Parallel linear algebra routines
   Shared memory     :  Shared parallel matrices
   BLAS/LAPACK       :  OpenBLAS 0.3.15  USE64BITINT DYNAMIC_ARCH NO_AFFINITY SkylakeX SINGLE_THREADED
        Core in use  :  SkylakeX
   Copyright (c) 2011-2014, The OpenBLAS Project


================================================================================

----- Orbital basis set information -----
Your calculation utilizes the basis: aug-cc-pVQZ 
    H, B-Ne : Obtained from the ccRepo (grant-hill.group.shef.ac.uk/ccrepo) Feb. 2017
              R. A. Kendall, T. H. Dunning, Jr., R. J. Harrison, J. Chem. Phys. 96, 6796 (1992)
         He : Obtained from the ccRepo (grant-hill.group.shef.ac.uk/ccrepo) Feb. 2017
              D. E. Woon, T. H. Dunning, Jr., J. Chem. Phys. 100, 2975 (1994)
  Li-Be, Na : Obtained from the ccRepo (grant-hill.group.shef.ac.uk/ccrepo) Feb. 2017
              B. P. Prascher, D. E. Woon, K. A. Peterson, T. H. Dunning, Jr., A. K. Wilson, Theor. Chem. Acc. 128, 69 (2011)
         Mg : Obtained from the Peterson Research Group Website (tyr0.chem.wsu.edu/~kipeters) Feb. 2017
              B. P. Prascher, D. E. Woon, K. A. Peterson, T. H. Dunning, Jr., A. K. Wilson, Theor. Chem. Acc. 128, 69 (2011)
      Al-Ar : Obtained from the ccRepo (grant-hill.group.shef.ac.uk/ccrepo) Feb. 2017
              D. E. Woon, T. H. Dunning, Jr., J. Chem. Phys. 98, 1358 (1993)
      Sc-Zn : Obtained from the ccRepo (grant-hill.group.shef.ac.uk/ccrepo) Feb. 2017
              N. B. Balabanov, K. A. Peterson, J. Chem. Phys. 123, 064107 (2005)
              N. B. Balabanov, K. A. Peterson, J. Chem. Phys. 125, 074110 (2006)
      Ga-Kr : Obtained from the ccRepo (grant-hill.group.shef.ac.uk/ccrepo) Feb. 2017
              A. K. Wilson, D. E. Woon, K. A. Peterson, T. H. Dunning, Jr., J. Chem. Phys. 110, 7667 (1999)

================================================================================
                                        WARNINGS
                       Please study these warnings very carefully!
================================================================================


WARNING: Post HF methods need fully converged wavefunctions
  ===> : Setting SCFConvForced true
         You can overwrite this default with %scf ConvForced false 


WARNING: MDCI localization with Augmented Hessian Foster-Boys
  ===> : Switching off randomization!

INFO   : the flag for use of the SHARK integral package has been found!

================================================================================
                                       INPUT FILE
================================================================================
NAME = /scratch/BH-3.2-UCCSD-O_683/BH-3.2-UCCSD-O.inp
|  1> ! UHF CCSD aug-cc-pVQZ VeryTightSCF MOread
|  2> 
|  3> %moinp "BH-3.2-UHF-O.gbw"
|  4> 
|  5> *xyz 0 1
|  6>  B	0.0	0.0	0.0
|  7>  H	3.2	0.0	0.0
|  8> **                         ****END OF INPUT****
================================================================================

                       ****************************
                       * Single Point Calculation *
                       ****************************

---------------------------------
CARTESIAN COORDINATES (ANGSTROEM)
---------------------------------
  B      0.000000    0.000000    0.000000
  H      3.200000    0.000000    0.000000

----------------------------
CARTESIAN COORDINATES (A.U.)
----------------------------
  NO LB      ZA    FRAG     MASS         X           Y           Z
   0 B     5.0000    0    10.810    0.000000    0.000000    0.000000
   1 H     1.0000    0     1.008    6.047124    0.000000    0.000000

--------------------------------
INTERNAL COORDINATES (ANGSTROEM)
--------------------------------
 B      0   0   0     0.000000000000     0.00000000     0.00000000
 H      1   0   0     3.200000000000     0.00000000     0.00000000

---------------------------
INTERNAL COORDINATES (A.U.)
---------------------------
 B      0   0   0     0.000000000000     0.00000000     0.00000000
 H      1   0   0     6.047123628548     0.00000000     0.00000000

---------------------
BASIS SET INFORMATION
---------------------
There are 2 groups of distinct atoms

 Group   1 Type B   : 22s7p4d3f2g contracted to 6s5p4d3f2g pattern {991111/31111/1111/111/11}
 Group   2 Type H   : 7s4p3d2f contracted to 5s4p3d2f pattern {31111/1111/111/11}

Atom   0B    basis set group =>   1
Atom   1H    basis set group =>   2
------------------------------------------------------------------------------
                           ORCA GTO INTEGRAL CALCULATION
------------------------------------------------------------------------------
------------------------------------------------------------------------------
                   ___                                                        
                  /   \      - P O W E R E D   B Y -                         
                 /     \                                                     
                 |  |  |   _    _      __       _____    __    __             
                 |  |  |  | |  | |    /  \     |  _  \  |  |  /  |          
                  \  \/   | |  | |   /    \    | | | |  |  | /  /          
                 / \  \   | |__| |  /  /\  \   | |_| |  |  |/  /          
                |  |  |   |  __  | /  /__\  \  |    /   |      \           
                |  |  |   | |  | | |   __   |  |    \   |  |\   \          
                \     /   | |  | | |  |  |  |  | |\  \  |  | \   \       
                 \___/    |_|  |_| |__|  |__|  |_| \__\ |__|  \__/        
                                                                              
                      - O R C A' S   B I G   F R I E N D -                    
                                      &                                       
                       - I N T E G R A L  F E E D E R -                       
                                                                              
 v1 FN, 2020, v2 2021                                                         
------------------------------------------------------------------------------


Reading SHARK input file /scratch/BH-3.2-UCCSD-O_683/BH-3.2-UCCSD-O.SHARKINP.tmp ... ok
----------------------
SHARK INTEGRAL PACKAGE
----------------------

Number of atoms                             ...      2
Number of basis functions                   ...    126
Number of shells                            ...     34
Maximum angular momentum                    ...      4
Integral batch strategy                     ... SHARK/LIBINT Hybrid
RI-J (if used) integral strategy            ... SPLIT-RIJ (Revised 2003 algorithm where possible)
Printlevel                                  ...      1
Contraction scheme used                     ... SEGMENTED contraction
Coulomb Range Separation                    ... NOT USED
Exchange Range Separation                   ... NOT USED
Finite Nucleus Model                        ... NOT USED
Auxiliary Coulomb fitting basis             ... NOT available
Auxiliary J/K fitting basis                 ... NOT available
Auxiliary Correlation fitting basis         ... NOT available
Auxiliary 'external' fitting basis          ... NOT available
Integral threshold                          ...     1.000000e-12
Primitive cut-off                           ...     1.000000e-14
Primitive pair pre-selection threshold      ...     1.000000e-14

Calculating pre-screening integrals         ... done (  0.1 sec) Dimension = 34
Organizing shell pair data                  ... done (  0.0 sec)
Shell pair information
Total number of shell pairs                 ...       595
Shell pairs after pre-screening             ...       590
Total number of primitive shell pairs       ...      1563
Primitive shell pairs kept                  ...      1442
          la=0 lb=0:     64 shell pairs
          la=1 lb=0:     96 shell pairs
          la=1 lb=1:     45 shell pairs
          la=2 lb=0:     77 shell pairs
          la=2 lb=1:     63 shell pairs
          la=2 lb=2:     28 shell pairs
          la=3 lb=0:     55 shell pairs
          la=3 lb=1:     45 shell pairs
          la=3 lb=2:     35 shell pairs
          la=3 lb=3:     15 shell pairs
          la=4 lb=0:     22 shell pairs
          la=4 lb=1:     18 shell pairs
          la=4 lb=2:     14 shell pairs
          la=4 lb=3:     10 shell pairs
          la=4 lb=4:      3 shell pairs

Calculating one electron integrals          ... done (  0.0 sec)
Calculating Nuclear repulsion               ... done (  0.0 sec) ENN=      0.826839387969 Eh

SHARK setup successfully completed in   0.1 seconds

Maximum memory used throughout the entire GTOINT-calculation: 32.9 MB
-------------------------------------------------------------------------------
                                 ORCA SCF
-------------------------------------------------------------------------------

------------
SCF SETTINGS
------------
Hamiltonian:
 Ab initio Hamiltonian  Method          .... Hartree-Fock(GTOs)


General Settings:
 Integral files         IntName         .... /scratch/BH-3.2-UCCSD-O_683/BH-3.2-UCCSD-O
 Hartree-Fock type      HFTyp           .... UHF
 Total Charge           Charge          ....    0
 Multiplicity           Mult            ....    1
 Number of Electrons    NEL             ....    6
 Basis Dimension        Dim             ....  126
 Nuclear Repulsion      ENuc            ....      0.8268393880 Eh

Convergence Acceleration:
 DIIS                   CNVDIIS         .... on
   Start iteration      DIISMaxIt       ....    12
   Startup error        DIISStart       ....  0.200000
   # of expansion vecs  DIISMaxEq       ....     5
   Bias factor          DIISBfac        ....   1.050
   Max. coefficient     DIISMaxC        ....  10.000
 Trust-Rad. Augm. Hess. CNVTRAH         .... auto
   Auto Start mean grad. ratio tolernc. ....  1.125000
   Auto Start start iteration           ....     1
   Auto Start num. interpolation iter.  ....    10
   Max. Number of Micro iterations      ....    16
   Max. Number of Macro iterations      .... Maxiter - #DIIS iter
   Number of Davidson start vectors     ....     2
   Converg. threshold I  (grad. norm)   ....   2.000e-06
   Converg. threshold II (energy diff.) ....   1.000e-09
   Grad. Scal. Fac. for Micro threshold ....   0.100
   Minimum threshold for Micro iter.    ....   0.010
   NR start threshold (gradient norm)   ....   0.001
   Initial trust radius                 ....   0.400
   Minimum AH scaling param. (alpha)    ....   1.000
   Maximum AH scaling param. (alpha)    .... 1000.000
   Orbital update algorithm             .... Taylor
   White noise on init. David. guess    .... on
   Maximum white noise                  ....   0.010
   Quad. conv. algorithm                .... NR
 SOSCF                  CNVSOSCF        .... off
 Level Shifting         CNVShift        .... on
   Level shift para.    LevelShift      ....    0.2500
   Turn off err/grad.   ShiftErr        ....    0.0010
 Zerner damping         CNVZerner       .... off
 Static damping         CNVDamp         .... on
   Fraction old density DampFac         ....    0.7000
   Max. Damping (<1)    DampMax         ....    0.9800
   Min. Damping (>=0)   DampMin         ....    0.0000
   Turn off err/grad.   DampErr         ....    0.1000
 Fernandez-Rico         CNVRico         .... off

SCF Procedure:
 Maximum # iterations   MaxIter         ....   125
 SCF integral mode      SCFMode         .... Direct
   Integral package                     .... SHARK and LIBINT hybrid scheme
 Reset frequency        DirectResetFreq ....    20
 Integral Threshold     Thresh          ....  1.000e-12 Eh
 Primitive CutOff       TCut            ....  1.000e-14 Eh

Convergence Tolerance:
 Convergence Check Mode ConvCheckMode   .... Total+1el-Energy
 Convergence forced     ConvForced      .... 1
 Energy Change          TolE            ....  1.000e-09 Eh
 1-El. energy change                    ....  1.000e-06 Eh
 DIIS Error             TolErr          ....  1.000e-08


Diagonalization of the overlap matrix:
Smallest eigenvalue                        ... 3.242e-03
Time for diagonalization                   ...    0.002 sec
Threshold for overlap eigenvalues          ... 1.000e-08
Number of eigenvalues below threshold      ... 0
Time for construction of square roots      ...    0.001 sec
Total time needed                          ...    0.003 sec

---------------------
INITIAL GUESS: MOREAD
---------------------
Guess MOs are being read from file: BH-3.2-UHF-O.gbw
Input Geometry matches current geometry (good)
Input basis set matches current basis set (good)
MOs were renormalized
MOs were reorthogonalized (Cholesky)
                      ------------------
                      INITIAL GUESS DONE (   0.0 sec)
                      ------------------
--------------
SCF ITERATIONS
--------------
ITER       Energy         Delta-E        Max-DP      RMS-DP      [F,P]     Damp
               ***  Starting incremental Fock matrix formation  ***
  0    -25.0336029532   0.000000000000 0.00000000  0.00000000  0.0000000 0.7000
                 **** Energy Check signals convergence ****

               *****************************************************
               *                     SUCCESS                       *
               *           SCF CONVERGED AFTER   1 CYCLES          *
               *****************************************************


----------------
TOTAL SCF ENERGY
----------------

Total Energy       :          -25.03360295 Eh            -681.19897 eV

Components:
Nuclear Repulsion  :            0.82683939 Eh              22.49944 eV
Electronic Energy  :          -25.86044234 Eh            -703.69841 eV
One Electron Energy:          -34.52175210 Eh            -939.38463 eV
Two Electron Energy:            8.66130976 Eh             235.68622 eV

Virial components:
Potential Energy   :          -50.06073324 Eh           -1362.22181 eV
Kinetic Energy     :           25.02713029 Eh             681.02284 eV
Virial Ratio       :            2.00025863


---------------
SCF CONVERGENCE
---------------

  Last Energy change         ...   -6.2883e-13  Tolerance :   1.0000e-09
  Last MAX-Density change    ...    1.6142e-09  Tolerance :   1.0000e-08
  Last RMS-Density change    ...    2.6126e-11  Tolerance :   1.0000e-09
  Last DIIS Error            ...    6.9230e-09  Tolerance :   1.0000e-08

             **** THE GBW FILE WAS UPDATED (/scratch/BH-3.2-UCCSD-O_683/BH-3.2-UCCSD-O.gbw) ****
             **** DENSITY /scratch/BH-3.2-UCCSD-O_683/BH-3.2-UCCSD-O.scfp WAS UPDATED ****
             **** ENERGY FILE WAS UPDATED (/scratch/BH-3.2-UCCSD-O_683/BH-3.2-UCCSD-O.en.tmp) ****
----------------------
UHF SPIN CONTAMINATION
----------------------

Expectation value of <S**2>     :     0.983178
Ideal value S*(S+1) for S=0.0   :     0.000000
Deviation                       :     0.983178

             **** THE GBW FILE WAS UPDATED (/scratch/BH-3.2-UCCSD-O_683/BH-3.2-UCCSD-O.gbw) ****
             **** DENSITY /scratch/BH-3.2-UCCSD-O_683/BH-3.2-UCCSD-O.scfp WAS UPDATED ****
----------------
ORBITAL ENERGIES
----------------
                 SPIN UP ORBITALS
  NO   OCC          E(Eh)            E(eV) 
   0   1.0000      -7.705200      -209.6692 
   1   1.0000      -0.547022       -14.8852 
   2   1.0000      -0.319788        -8.7019 
   3   0.0000       0.022690         0.6174 
   4   0.0000       0.022690         0.6174 
   5   0.0000       0.025510         0.6942 
   6   0.0000       0.047630         1.2961 
   7   0.0000       0.076111         2.0711 
   8   0.0000       0.076111         2.0711 
   9   0.0000       0.082568         2.2468 
  10   0.0000       0.106532         2.8989 
  11   0.0000       0.144683         3.9370 
  12   0.0000       0.144683         3.9370 
  13   0.0000       0.145128         3.9491 
  14   0.0000       0.145128         3.9491 
  15   0.0000       0.188002         5.1158 
  16   0.0000       0.245975         6.6933 
  17   0.0000       0.245975         6.6933 
  18   0.0000       0.268464         7.3053 
  19   0.0000       0.312883         8.5140 
  20   0.0000       0.312883         8.5140 
  21   0.0000       0.316739         8.6189 
  22   0.0000       0.362018         9.8510 
  23   0.0000       0.459380        12.5004 
  24   0.0000       0.459380        12.5004 
  25   0.0000       0.460966        12.5435 
  26   0.0000       0.460966        12.5435 
  27   0.0000       0.477815        13.0020 
  28   0.0000       0.477815        13.0020 
  29   0.0000       0.494930        13.4677 
  30   0.0000       0.499210        13.5842 
  31   0.0000       0.499210        13.5842 
  32   0.0000       0.513934        13.9849 
  33   0.0000       0.513934        13.9849 
  34   0.0000       0.534404        14.5419 
  35   0.0000       0.595569        16.2062 
  36   0.0000       0.666229        18.1290 
  37   0.0000       0.666229        18.1290 
  38   0.0000       0.791225        21.5303 
  39   0.0000       0.791225        21.5303 
  40   0.0000       0.858307        23.3557 
  41   0.0000       0.858307        23.3557 
  42   0.0000       0.898512        24.4498 
  43   0.0000       0.932584        25.3769 
  44   0.0000       1.048625        28.5345 
  45   0.0000       1.048625        28.5345 
  46   0.0000       1.101963        29.9859 
  47   0.0000       1.359756        37.0008 
  48   0.0000       1.359756        37.0008 
  49   0.0000       1.361821        37.0570 
  50   0.0000       1.361821        37.0570 
  51   0.0000       1.368595        37.2414 
  52   0.0000       1.368595        37.2414 
  53   0.0000       1.369710        37.2717 
  54   0.0000       1.376092        37.4454 
  55   0.0000       1.376092        37.4454 
  56   0.0000       1.395230        37.9661 
  57   0.0000       1.404892        38.2291 
  58   0.0000       1.404892        38.2291 
  59   0.0000       1.408216        38.3195 
  60   0.0000       1.408216        38.3195 
  61   0.0000       1.436835        39.0983 
  62   0.0000       1.436835        39.0983 
  63   0.0000       1.449094        39.4318 
  64   0.0000       1.449094        39.4318 
  65   0.0000       1.485576        40.4246 
  66   0.0000       1.514018        41.1985 
  67   0.0000       1.514018        41.1985 
  68   0.0000       1.584055        43.1043 
  69   0.0000       1.584055        43.1043 
  70   0.0000       1.653537        44.9950 
  71   0.0000       1.653537        44.9950 
  72   0.0000       1.706879        46.4465 
  73   0.0000       1.801450        49.0199 
  74   0.0000       1.850303        50.3493 
  75   0.0000       1.850303        50.3493 
  76   0.0000       1.927669        52.4545 
  77   0.0000       2.513701        68.4013 
  78   0.0000       2.513701        68.4013 
  79   0.0000       2.613328        71.1123 
  80   0.0000       2.613328        71.1123 
  81   0.0000       2.662404        72.4477 
  82   0.0000       2.662404        72.4477 
  83   0.0000       2.727379        74.2158 
  84   0.0000       2.853837        77.6569 
  85   0.0000       3.736103       101.6645 
  86   0.0000       3.736103       101.6645 
  87   0.0000       3.817048       103.8672 
  88   0.0000       3.917452       106.5993 
  89   0.0000       3.917452       106.5993 
  90   0.0000       3.932650       107.0128 
  91   0.0000       3.932650       107.0128 
  92   0.0000       3.951341       107.5215 
  93   0.0000       3.951341       107.5215 
  94   0.0000       3.956159       107.6526 
  95   0.0000       3.956159       107.6526 
  96   0.0000       3.960439       107.7690 
  97   0.0000       3.960439       107.7690 
  98   0.0000       3.975663       108.1833 
  99   0.0000       4.046973       110.1237 
 100   0.0000       4.046973       110.1237 
 101   0.0000       4.083626       111.1211 
 102   0.0000       4.083626       111.1211 
 103   0.0000       4.101103       111.5967 
 104   0.0000       4.101103       111.5967 
 105   0.0000       4.130945       112.4087 
 106   0.0000       4.130945       112.4087 
 107   0.0000       4.181204       113.7763 
 108   0.0000       4.254429       115.7689 
 109   0.0000       6.592248       179.3842 
 110   0.0000       6.592248       179.3842 
 111   0.0000       6.605479       179.7442 
 112   0.0000       6.605479       179.7442 
 113   0.0000       6.658559       181.1886 
 114   0.0000       6.658559       181.1886 
 115   0.0000       6.702464       182.3833 
 116   0.0000       7.571585       206.0333 
 117   0.0000       8.018615       218.1976 
 118   0.0000       8.018615       218.1976 
 119   0.0000       8.159740       222.0378 
 120   0.0000       8.450326       229.9451 
 121   0.0000       8.450326       229.9451 
 122   0.0000       8.510534       231.5834 
 123   0.0000       8.510534       231.5834 
 124   0.0000       8.609032       234.2637 
 125   0.0000      13.105116       356.6083 

                 SPIN DOWN ORBITALS
  NO   OCC          E(Eh)            E(eV) 
   0   1.0000      -7.690629      -209.2727 
   1   1.0000      -0.490399       -13.3444 
   2   1.0000      -0.446094       -12.1388 
   3   0.0000       0.026204         0.7131 
   4   0.0000       0.026204         0.7131 
   5   0.0000       0.040253         1.0953 
   6   0.0000       0.054847         1.4925 
   7   0.0000       0.082838         2.2541 
   8   0.0000       0.082838         2.2541 
   9   0.0000       0.083303         2.2668 
  10   0.0000       0.114651         3.1198 
  11   0.0000       0.144020         3.9190 
  12   0.0000       0.144020         3.9190 
  13   0.0000       0.145151         3.9498 
  14   0.0000       0.145151         3.9498 
  15   0.0000       0.186995         5.0884 
  16   0.0000       0.230612         6.2753 
  17   0.0000       0.230612         6.2753 
  18   0.0000       0.266368         7.2483 
  19   0.0000       0.320364         8.7176 
  20   0.0000       0.320364         8.7176 
  21   0.0000       0.355395         9.6708 
  22   0.0000       0.362360         9.8603 
  23   0.0000       0.460900        12.5417 
  24   0.0000       0.460900        12.5417 
  25   0.0000       0.462026        12.5724 
  26   0.0000       0.462026        12.5724 
  27   0.0000       0.462876        12.5955 
  28   0.0000       0.496214        13.5027 
  29   0.0000       0.496214        13.5027 
  30   0.0000       0.500298        13.6138 
  31   0.0000       0.500298        13.6138 
  32   0.0000       0.526900        14.3377 
  33   0.0000       0.527882        14.3644 
  34   0.0000       0.527882        14.3644 
  35   0.0000       0.597712        16.2646 
  36   0.0000       0.654517        17.8103 
  37   0.0000       0.654517        17.8103 
  38   0.0000       0.761955        20.7339 
  39   0.0000       0.761955        20.7339 
  40   0.0000       0.815435        22.1891 
  41   0.0000       0.815435        22.1891 
  42   0.0000       0.854622        23.2555 
  43   0.0000       0.946991        25.7689 
  44   0.0000       1.057519        28.7766 
  45   0.0000       1.057519        28.7766 
  46   0.0000       1.151656        31.3382 
  47   0.0000       1.366725        37.1905 
  48   0.0000       1.366725        37.1905 
  49   0.0000       1.366926        37.1960 
  50   0.0000       1.366926        37.1960 
  51   0.0000       1.368319        37.2339 
  52   0.0000       1.368319        37.2339 
  53   0.0000       1.379909        37.5492 
  54   0.0000       1.381044        37.5801 
  55   0.0000       1.381044        37.5801 
  56   0.0000       1.413812        38.4718 
  57   0.0000       1.413812        38.4718 
  58   0.0000       1.436348        39.0850 
  59   0.0000       1.437341        39.1120 
  60   0.0000       1.437341        39.1120 
  61   0.0000       1.452470        39.5237 
  62   0.0000       1.452470        39.5237 
  63   0.0000       1.464675        39.8558 
  64   0.0000       1.464675        39.8558 
  65   0.0000       1.513627        41.1879 
  66   0.0000       1.535813        41.7916 
  67   0.0000       1.535813        41.7916 
  68   0.0000       1.571950        42.7749 
  69   0.0000       1.571950        42.7749 
  70   0.0000       1.644811        44.7576 
  71   0.0000       1.644811        44.7576 
  72   0.0000       1.677107        45.6364 
  73   0.0000       1.749449        47.6049 
  74   0.0000       1.844779        50.1990 
  75   0.0000       1.844779        50.1990 
  76   0.0000       1.921096        52.2757 
  77   0.0000       2.474915        67.3459 
  78   0.0000       2.474915        67.3459 
  79   0.0000       2.571688        69.9792 
  80   0.0000       2.571688        69.9792 
  81   0.0000       2.594881        70.6103 
  82   0.0000       2.594881        70.6103 
  83   0.0000       2.684225        73.0415 
  84   0.0000       2.807818        76.4046 
  85   0.0000       3.742834       101.8477 
  86   0.0000       3.742834       101.8477 
  87   0.0000       3.858628       104.9986 
  88   0.0000       3.918027       106.6149 
  89   0.0000       3.918027       106.6149 
  90   0.0000       3.943310       107.3029 
  91   0.0000       3.943310       107.3029 
  92   0.0000       3.958609       107.7192 
  93   0.0000       3.958609       107.7192 
  94   0.0000       3.972038       108.0846 
  95   0.0000       3.972038       108.0846 
  96   0.0000       3.996323       108.7455 
  97   0.0000       3.996323       108.7455 
  98   0.0000       4.013620       109.2162 
  99   0.0000       4.068935       110.7213 
 100   0.0000       4.068935       110.7213 
 101   0.0000       4.086095       111.1883 
 102   0.0000       4.086095       111.1883 
 103   0.0000       4.122054       112.1668 
 104   0.0000       4.122054       112.1668 
 105   0.0000       4.163219       113.2870 
 106   0.0000       4.163219       113.2870 
 107   0.0000       4.216258       114.7302 
 108   0.0000       4.286908       116.6527 
 109   0.0000       6.563638       178.6057 
 110   0.0000       6.563638       178.6057 
 111   0.0000       6.577053       178.9707 
 112   0.0000       6.577053       178.9707 
 113   0.0000       6.630570       180.4270 
 114   0.0000       6.630570       180.4270 
 115   0.0000       6.674624       181.6257 
 116   0.0000       7.491765       203.8613 
 117   0.0000       7.961333       216.6389 
 118   0.0000       7.961333       216.6389 
 119   0.0000       8.104423       220.5326 
 120   0.0000       8.408487       228.8066 
 121   0.0000       8.408487       228.8066 
 122   0.0000       8.469161       230.4576 
 123   0.0000       8.469161       230.4576 
 124   0.0000       8.568192       233.1524 
 125   0.0000      13.115987       356.9042 

                    ********************************
                    * MULLIKEN POPULATION ANALYSIS *
                    ********************************

--------------------------------------------
MULLIKEN ATOMIC CHARGES AND SPIN POPULATIONS
--------------------------------------------
   0 B :    0.008008    0.996919
   1 H :   -0.008008   -0.996919
Sum of atomic charges         :   -0.0000000
Sum of atomic spin populations:   -0.0000000

-----------------------------------------------------
MULLIKEN REDUCED ORBITAL CHARGES AND SPIN POPULATIONS
-----------------------------------------------------
CHARGE
  0 B s       :     3.992160  s :     3.992160
      pz      :     0.000000  p :     0.994914
      px      :     0.994914
      py      :     0.000000
      dz2     :     0.001255  d :     0.005018
      dxz     :     0.000000
      dyz     :     0.000000
      dx2y2   :     0.003764
      dxy     :     0.000000
      f0      :     0.000000  f :    -0.000097
      f+1     :    -0.000036
      f-1     :     0.000000
      f+2     :     0.000000
      f-2     :     0.000000
      f+3     :    -0.000061
      f-3     :     0.000000
      g0      :    -0.000000  g :    -0.000003
      g+1     :     0.000000
      g-1     :     0.000000
      g+2     :    -0.000001
      g-2     :     0.000000
      g+3     :     0.000000
      g-3     :     0.000000
      g+4     :    -0.000002
      g-4     :     0.000000
  1 H s       :     1.006539  s :     1.006539
      pz      :     0.000000  p :     0.000989
      px      :     0.000989
      py      :     0.000000
      dz2     :     0.000118  d :     0.000473
      dxz     :     0.000000
      dyz     :     0.000000
      dx2y2   :     0.000355
      dxy     :     0.000000
      f0      :     0.000000  f :     0.000007
      f+1     :     0.000003
      f-1     :     0.000000
      f+2     :     0.000000
      f-2     :     0.000000
      f+3     :     0.000005
      f-3     :     0.000000

SPIN
  0 B s       :     0.000604  s :     0.000604
      pz      :     0.000000  p :     0.994587
      px      :     0.994587
      py      :     0.000000
      dz2     :     0.000378  d :     0.001510
      dxz     :     0.000000
      dyz     :    -0.000000
      dx2y2   :     0.001133
      dxy     :     0.000000
      f0      :     0.000000  f :     0.000215
      f+1     :     0.000080
      f-1     :     0.000000
      f+2     :     0.000000
      f-2     :    -0.000000
      f+3     :     0.000134
      f-3     :     0.000000
      g0      :     0.000001  g :     0.000004
      g+1     :     0.000000
      g-1     :     0.000000
      g+2     :     0.000001
      g-2     :    -0.000000
      g+3     :     0.000000
      g-3     :     0.000000
      g+4     :     0.000002
      g-4     :     0.000000
  1 H s       :    -0.996266  s :    -0.996266
      pz      :     0.000000  p :    -0.000785
      px      :    -0.000785
      py      :     0.000000
      dz2     :     0.000036  d :     0.000145
      dxz     :    -0.000000
      dyz     :    -0.000000
      dx2y2   :     0.000108
      dxy     :     0.000000
      f0      :     0.000000  f :    -0.000013
      f+1     :    -0.000005
      f-1     :     0.000000
      f+2     :     0.000000
      f-2     :     0.000000
      f+3     :    -0.000008
      f-3     :    -0.000000


                     *******************************
                     * LOEWDIN POPULATION ANALYSIS *
                     *******************************

-------------------------------------------
LOEWDIN ATOMIC CHARGES AND SPIN POPULATIONS
-------------------------------------------
   0 B :    0.010069    0.864675
   1 H :   -0.010069   -0.864675

----------------------------------------------------
LOEWDIN REDUCED ORBITAL CHARGES AND SPIN POPULATIONS
----------------------------------------------------
CHARGE
  0 B s       :     3.950877  s :     3.950877
      pz      :     0.000000  p :     0.983037
      px      :     0.983037
      py      :     0.000000
      dz2     :     0.010037  d :     0.040147
      dxz     :     0.000000
      dyz     :     0.000000
      dx2y2   :     0.030110
      dxy     :     0.000000
      f0      :     0.000000  f :     0.015101
      f+1     :     0.005663
      f-1     :     0.000000
      f+2     :     0.000000
      f-2     :     0.000000
      f+3     :     0.009438
      f-3     :     0.000000
      g0      :     0.000108  g :     0.000769
      g+1     :     0.000000
      g-1     :     0.000000
      g+2     :     0.000240
      g-2     :     0.000000
      g+3     :     0.000000
      g-3     :     0.000000
      g+4     :     0.000421
      g-4     :     0.000000
  1 H s       :     0.943824  s :     0.943824
      pz      :     0.000000  p :     0.049356
      px      :     0.049356
      py      :     0.000000
      dz2     :     0.003831  d :     0.015326
      dxz     :     0.000000
      dyz     :     0.000000
      dx2y2   :     0.011494
      dxy     :     0.000000
      f0      :     0.000000  f :     0.001564
      f+1     :     0.000586
      f-1     :     0.000000
      f+2     :     0.000000
      f-2     :     0.000000
      f+3     :     0.000977
      f-3     :     0.000000

SPIN
  0 B s       :    -0.006757  s :    -0.006757
      pz      :     0.000000  p :     0.922140
      px      :     0.922140
      py      :     0.000000
      dz2     :    -0.008740  d :    -0.034960
      dxz     :     0.000000
      dyz     :    -0.000000
      dx2y2   :    -0.026220
      dxy     :     0.000000
      f0      :     0.000000  f :    -0.015028
      f+1     :    -0.005636
      f-1     :    -0.000000
      f+2     :     0.000000
      f-2     :     0.000000
      f+3     :    -0.009393
      f-3     :     0.000000
      g0      :    -0.000101  g :    -0.000720
      g+1     :     0.000000
      g-1     :     0.000000
      g+2     :    -0.000225
      g-2     :    -0.000000
      g+3     :     0.000000
      g-3     :     0.000000
      g+4     :    -0.000394
      g-4     :     0.000000
  1 H s       :    -0.893515  s :    -0.893515
      pz      :     0.000000  p :     0.019498
      px      :     0.019498
      py      :     0.000000
      dz2     :     0.002097  d :     0.008389
      dxz     :     0.000000
      dyz     :    -0.000000
      dx2y2   :     0.006292
      dxy     :     0.000000
      f0      :     0.000000  f :     0.000953
      f+1     :     0.000357
      f-1     :     0.000000
      f+2     :     0.000000
      f-2     :     0.000000
      f+3     :     0.000595
      f-3     :     0.000000


                      *****************************
                      * MAYER POPULATION ANALYSIS *
                      *****************************

  NA   - Mulliken gross atomic population
  ZA   - Total nuclear charge
  QA   - Mulliken gross atomic charge
  VA   - Mayer's total valence
  BVA  - Mayer's bonded valence
  FA   - Mayer's free valence

  ATOM       NA         ZA         QA         VA         BVA        FA
  0 B      4.9920     5.0000     0.0080     1.0200     0.0089     1.0111
  1 H      1.0080     1.0000    -0.0080     1.0012     0.0089     0.9923

  Mayer bond orders larger than 0.100000


-------
TIMINGS
-------

Total SCF time: 0 days 0 hours 0 min 1 sec 

Total time                  ....       1.374 sec
Sum of individual times     ....       1.251 sec  ( 91.1%)

Fock matrix formation       ....       1.238 sec  ( 90.1%)
Diagonalization             ....       0.006 sec  (  0.4%)
Density matrix formation    ....       0.000 sec  (  0.0%)
Population analysis         ....       0.002 sec  (  0.2%)
Initial guess               ....       0.004 sec  (  0.3%)
Orbital Transformation      ....       0.000 sec  (  0.0%)
Orbital Orthonormalization  ....       0.002 sec  (  0.2%)
DIIS solution               ....       0.001 sec  (  0.1%)

Maximum memory used throughout the entire SCF-calculation: 257.1 MB


------------------------------------------------------------------------------- 
                              ORCA-MATRIX DRIVEN CI                            
------------------------------------------------------------------------------- 

--------------------------------
AUTOMATIC CHOICE OF INCORE LEVEL
--------------------------------

Memory available                           ...    256.00 MB
Memory needed for S+T                      ...      1.04 MB
Memory needed for J+K                      ...      2.08 MB
Memory needed for DIIS                     ...     14.54 MB
Memory needed for 3-ext                    ...     28.39 MB
Memory needed for 4-ext                    ...    880.23 MB
Memory needed for triples                  ...      0.00 MB
 -> Final InCoreLevel    ... 4

Wavefunction type
-----------------
Correlation treatment                      ...      CCSD     
Single excitations                         ... ON
Orbital optimization                       ... OFF
Calculation of Z vector                    ... OFF
Calculation of Brueckner orbitals          ... OFF
Perturbative triple excitations            ... OFF
Calculation of F12 correction              ... OFF
Frozen core treatment                      ... chemical core (2 el)
Reference Wavefunction                     ... UHF
  Alpha-MOs occ    :     1 ...    2 (  2 MO's/  2 electrons)
  Beta-MOs occ     :     1 ...    2 (  2 MO's/  2 electrons)
  Alpha-MOs virt   :     3 ...  125 (123 MO's              )
  Beta-MOs virt    :     3 ...  125 (123 MO's              )
Number of AO's                             ...    126
Number of electrons                        ...      6
Number of correlated electrons             ...      4

Algorithmic settings
--------------------
Integral transformation                    ... AO direct full transformation
K(C) Formation                             ... FULL-MO TRAFO
Maximum number of iterations               ...        50
Convergence tolerance (max. residuum)      ... 1.000e-06
Level shift for amplitude update           ... 2.000e-01
Maximum number of DIIS vectors             ...         7
DIIS turned on at iteration                ...         0
Damping before turning on DIIS             ...     0.500
Damping after turning on DIIS              ...     0.000
Pair specific amplitude update             ... OFF
Natural orbital iterations                 ... OFF
Perturbative natural orbital generation    ... OFF
Printlevel                                 ... 2

Memory handling:
----------------
Maximum memory for working arrays          ...    256 MB
Data storage in matrix containers          ... UNCOMPRESSED
Data type for integral storage             ... DOUBLE
In-Core Storage of quantities:
   Amplitudes+Sigma Vector      ... YES
   J+K operators                ... YES
   DIIS vectors                 ... YES
   3-external integrals         ... YES
   4-external integrals         ... NO


Initializing the integral package          ... done
Warning: reference  - re-canonicalizations have been set to INT 1 VIRT 1

--------------------------
UNRESTRICTED FOCK OPERATOR
--------------------------

Restoring SHARK [2] ... ok
Recanonicalizing the internal orbitals
Recanonicalizing the virtual orbitals
Time needed for Fock operator              ...            1.239 sec
Reference energy                           ...    -25.033602953
Warning: for UHF the TrafoType has to be JK
Warning: for UHF the K(C)-option but must be AOX

-------------------------------
PARTIAL EXCHANGE TRANSFORMATION
-------------------------------

Transformation type                        ... two-operators
Generation of integrals (i,mue|j,nue)      ... ON
Generation of integrals (mue,kappa|nue,tau)... ON
Generation of integrals (i,mue|a,nue)      ... ON
Dimension of the basis                     ...  126
Number of internal alpha-MOs               ...    2 (   1-   2)
Number of internal beta-MOs                ...    2 (   1-   2)
Number of external alpha-MOs               ...  123 (   3- 125)
Number of external beta-MOs                ...  123 (   3- 125)
Pair cutoff                                ... 0.000e+00 Eh
Number of AO pairs in the trafo            ... 8001
Total Number of distinct AO pairs          ... 8001
Memory devoted for trafo                   ...  256.0 MB 
Max. Number of MO pairs treated together   ... 2113      
Number Format for Storage                  ... Double (8 Byte)
Integral package used                      ... LIBINT

Starting integral evaluation:
    ... done with AO integral generation
Closing buffer AOK[aa] ( 0.00 GB; CompressionRatio= 0.73)
Closing buffer AOK[bb] ( 0.00 GB; CompressionRatio= 0.73)
Closing buffer AOK[ab] ( 0.00 GB; CompressionRatio= 0.73)
Closing buffer AOK[ba] ( 0.00 GB; CompressionRatio= 0.73)
Collecting buffer AOK 
Closing buffer IAAO1[aa] ( 0.01 GB; CompressionRatio= 0.99)
Closing buffer IAAO1[bb] ( 0.01 GB; CompressionRatio= 0.99)
Closing buffer IAAO1[ab] ( 0.01 GB; CompressionRatio= 0.99)
Closing buffer IAAO1[ba] ( 0.01 GB; CompressionRatio= 0.99)
Closing buffer IAAO2[aa] ( 0.01 GB; CompressionRatio= 0.99)
Closing buffer IAAO2[bb] ( 0.01 GB; CompressionRatio= 0.99)
Closing buffer IAAO2[ab] ( 0.01 GB; CompressionRatio= 0.99)
Closing buffer IAAO2[ba] ( 0.01 GB; CompressionRatio= 0.99)
Collecting buffer IAAO 
Closing buffer PRQS    ( 0.95 GB; CompressionRatio= 1.00)
Collecting buffer PRQS 
Number of alpha/alpha MO pairs in trafo    ...    3
Number of beta /beta  MO pairs in trafo    ...    3
Number of alpha/ beta MO pairs in trafo    ...    4
------------------------
SORTING OF (i,mue|j,nue)
------------------------

SORTING OF ALPHA/ALPHA PAIRS
IBATCH = 1 of  1
Closing buffer KAO[aa] ( 0.00 GB; CompressionRatio= 1.00)
Collecting buffer KAO 
SORTING OF BETA /BETA  PAIRS
IBATCH = 1 of  1
Closing buffer KAO[bb] ( 0.00 GB; CompressionRatio= 1.00)
Collecting buffer KAO 
SORTING OF ALPHA/BETA  PAIRS
IBATCH = 1 of  1
Closing buffer KAO[ab] ( 0.00 GB; CompressionRatio= 0.999905526689)
Collecting buffer KAO[ab] 
------------------------
SORTING OF (i,mue|a,nue)
------------------------

Number of alpha/alpha (i,a) pairs in trafo  ...  246
Number of beta /beta  (i,a) pairs in trafo  ...  246
Number of alpha/ beta (i,a) pairs in trafo  ...  246
Number of beta /alpha (i,a) pairs in trafo  ...  246
Setting up the alpha/alpha list             ... done
Setting up the beta /beta  list             ... done
Setting up the alpha/beta  list             ... done
Setting up the beta /alpha list             ... done
    ... Now sorting (i,mue|a,nue)integrals
    ... Integrals (i,b|a,c) will be made on the fly
SORTING OF ALPHA/ALPHA PAIRS
IBATCH = 1 of  1
Closing buffer IPAQ[aa]  0.03 GB; CompressionRatio= 1.00)
SORTING OF BETA /BETA  PAIRS
IBATCH = 1 of  1
Closing buffer IPAQ[bb]( 0.03 GB; CompressionRatio= 1.00)
SORTING OF ALPHA/BETA  PAIRS (NMatSort_ab=246)
IBATCH = 1 of  1
Closing buffer IPAQ[ab]( 0.03 GB; CompressionRatio= 1.00)
SORTING OF BETA/ALPHA  PAIRS
IBATCH = 1 of  1
Closing buffer IPAQ[ba]( 0.03 GB; CompressionRatio= 1.00)
N(AO-Batches) Done                         ...    668930 
N(AO-Batches) Skipped                      ...         0 
N(IJ)-pairs Skipped                        ...         0 
TOTAL TIME for half transformation         ...     5.761 sec
AO-integral generation                     ...     3.700 sec
Half transformation                        ...     0.854 sec
K-integral sorting                         ...     0.388 sec

------------------------------
PARTIAL COULOMB TRANSFORMATION
------------------------------

Transformation type                        ... two-operators
Dimension of the basis                     ...  126
Number of internal alpha-MOs               ...    2 (1-2)
Number of internal beta-MOs                ...    2 (1-2)
Pair cutoff                                ... 0.000e+00 Eh
Number of AO pairs included in the trafo   ... 8001
Total Number of distinct AO pairs          ... 8001
Memory devoted for trafo                   ...  256.0 MB 
Max. Number of MO pairs treated together   ... 4193      
Max. Number of MOs treated per batch       ...   33      
Number Format for Storage                  ... Double (8 Byte)
AO-integral source                         ... DIRECT
Integral package used                      ... LIBINT

Starting integral evaluation:
<ss|**>:        37568 b        0 skpd     0.056 s (  0.002 ms/b)
<sp|**>:        56352 b        0 skpd     0.083 s (  0.001 ms/b)
<sd|**>:        44025 b        0 skpd     0.115 s (  0.003 ms/b)
<sf|**>:        32285 b        0 skpd     0.157 s (  0.005 ms/b)
<sg|**>:        12914 b        0 skpd     0.122 s (  0.009 ms/b)
<pp|**>:        25828 b        0 skpd     0.073 s (  0.003 ms/b)
<pd|**>:        36981 b        0 skpd     0.192 s (  0.005 ms/b)
<pf|**>:        26415 b        0 skpd     0.240 s (  0.009 ms/b)
<pg|**>:        10566 b        0 skpd     0.156 s (  0.015 ms/b)
<dd|**>:        16436 b        0 skpd     0.165 s (  0.010 ms/b)
<df|**>:        20545 b        0 skpd     0.312 s (  0.015 ms/b)
<dg|**>:         8218 b        0 skpd     0.186 s (  0.023 ms/b)
<ff|**>:         8805 b        0 skpd     0.251 s (  0.029 ms/b)
<fg|**>:         5870 b        0 skpd     0.229 s (  0.039 ms/b)
<gg|**>:         1761 b        0 skpd     0.106 s (  0.060 ms/b)
Closing buffer AOJ[aa] ( 0.00 GB; CompressionRatio= 0.67)
Closing buffer AOJ[bb] ( 0.00 GB; CompressionRatio= 0.67)
Collecting buffer AOJ 
    ... done with AO integral generation
Number of Alpha-MO pairs included          ...    3
Number of Beta-MO pairs included           ...    3
    ... Now sorting integrals
SORTING ALPHA/ALPHA PAIRS
IBATCH = 1 of  1
Closing buffer JAO[aa] ( 0.00 GB; CompressionRatio= 1.00)
SORTING BETA/BETA PAIRS
IBATCH = 1 of  1
Closing buffer JAO[bb] ( 0.00 GB; CompressionRatio= 1.00)
Collecting buffer JAO 
TOTAL TIME for half transformation         ...     2.452 sec
AO-integral generation                     ...     2.020 sec
Half transformation                        ...     0.426 sec
J-integral sorting                         ...     0.005 sec

-------------------------- SECOND HALF TRANSFORMATION -------------------------
Formation of (ij|kl),(ij|ka), (ij|ab)      ... ok (     0.004 sec)
Formation of (ik|jl),(ik|ja), (ia|jb)      ... ok (     0.005 sec)


-----------------------
SPIN UNRESTRICTED GUESS
-----------------------

Spin-components of the MP2 energy:
EMP2(aa)=     -0.003444482
EMP2(bb)=     -0.000175278
EMP2(ab)=     -0.044822119

Initial guess performed in     0.000 sec
E(0)                                       ...    -25.033602953
E(MP2)                                     ...     -0.048441879
Initial E(tot)                             ...    -25.082044832
<T|T>                                      ...      0.027415132
Number of pairs included                   ... 6

------------------------------------------------
                  UHF COUPLED CLUSTER ITERATIONS
------------------------------------------------

Number of amplitudes to be optimized       ...        75890

Iter       E(tot)           E(Corr)          Delta-E          Residual     Time      <S|S>**1/2
  0    -25.082044832     -0.048441879      0.000000000      0.016646002    0.88      0.000000010
                           *** Turning on DIIS ***
  1    -25.091344894     -0.057741941     -0.009300062      0.010206205    2.10      0.010705541
  2    -25.099335484     -0.065732530     -0.007990589      0.003343414    2.16      0.022551457
  3    -25.101534991     -0.067932037     -0.002199507      0.001585778    2.11      0.029152430
  4    -25.101837026     -0.068234073     -0.000302036      0.001618889    2.18      0.032099265
  5    -25.101959502     -0.068356549     -0.000122476      0.001608486    2.12      0.034342438
  6    -25.102032175     -0.068429222     -0.000072673      0.001551906    2.12      0.036939485
  7    -25.102104831     -0.068501877     -0.000072655      0.001409233    2.22      0.040421644
  8    -25.102181933     -0.068578980     -0.000077102      0.001215925    2.23      0.042917570
  9    -25.102308090     -0.068705136     -0.000126157      0.000764064    2.20      0.047079976
 10    -25.102417359     -0.068814405     -0.000109269      0.000234138    2.12      0.050834950
 11    -25.102457311     -0.068854358     -0.000039953      0.000091486    2.13      0.052398996
 12    -25.102469712     -0.068866759     -0.000012401      0.000058664    2.13      0.052592690
 13    -25.102477300     -0.068874346     -0.000007588      0.000034770    2.18      0.052693893
 14    -25.102481354     -0.068878401     -0.000004054      0.000015543    2.13      0.052737421
 15    -25.102483155     -0.068880202     -0.000001801      0.000005657    2.13      0.052793782
 16    -25.102483398     -0.068880444     -0.000000242      0.000003077    2.15      0.052818391
 17    -25.102483431     -0.068880478     -0.000000034      0.000002180    2.13      0.052827654
 18    -25.102483414     -0.068880461      0.000000017      0.000002111    2.19      0.052829697
 19    -25.102483382     -0.068880428      0.000000033      0.000002017    2.12      0.052829161
 20    -25.102483362     -0.068880409      0.000000019      0.000001892    2.13      0.052829269
 21    -25.102483380     -0.068880427     -0.000000018      0.000001714    2.13      0.052830142
 22    -25.102483460     -0.068880507     -0.000000080      0.000001385    2.21      0.052832643
 23    -25.102483558     -0.068880605     -0.000000098      0.000001058    2.21      0.052835477
 24    -25.102483712     -0.068880759     -0.000000154      0.000000498    2.12      0.052840861
               --- The Coupled-Cluster iterations have converged ---

----------------------
COUPLED CLUSTER ENERGY
----------------------

E(0)                                       ...    -25.033602953
E(CORR)                                    ...     -0.068880759
E(TOT)                                     ...    -25.102483712
Singles norm <S|S>**1/2                    ...      0.052840861 ( 0.034017593, 0.018823268)  
T1 diagnostic                              ...      0.026420430                              

------------------
LARGEST AMPLITUDES
------------------
   1a->  8a   2b->  7b       0.066858
   1a->  7a   2b->  8b       0.066858
   2a-> 10a   1b-> 10b       0.061950
   1a->  4a   2b->  7b       0.061094
   1a->  3a   2b->  8b       0.061094
   2a->  5a   1b-> 10b       0.056333
   1a->  8a   2b->  4b       0.050629
   1a->  7a   2b->  3b       0.050629
   1a->  4a   2b->  4b       0.046465
   1a->  3a   2b->  3b       0.046465
   1a->  8a   2b-> 19b       0.044290
   1a->  7a   2b-> 20b       0.044290
   1a-> 19a   2b->  7b       0.044274
   1a-> 20a   2b->  8b       0.044274
   2a->  5a  -1a-> -1a       0.041492
   1a->  3a   2b-> 20b       0.040058



        !!!!!!!!!!!!!!!!!!!!!!!!!!!!!!!!!!!!!!!!!!!!!!!!!!!!!!!!!!!!!!!!!!!!!!!!!! 
        !  Warning: Densities are linearized densities                           !
        !!!!!!!!!!!!!!!!!!!!!!!!!!!!!!!!!!!!!!!!!!!!!!!!!!!!!!!!!!!!!!!!!!!!!!!!!! 

NORM  =      1.096616802 sqrt=     1.047194730
W(HF) =      0.911895566
------------------------------------------------------------------------------
                           ORCA POPULATION ANALYSIS
------------------------------------------------------------------------------
Input electron density              ... /scratch/BH-3.2-UCCSD-O_683/BH-3.2-UCCSD-O.mdcip
Input spin density                  ... /scratch/BH-3.2-UCCSD-O_683/BH-3.2-UCCSD-O.mdcir
BaseName (.gbw .S,...)              ... /scratch/BH-3.2-UCCSD-O_683/BH-3.2-UCCSD-O

                    ********************************
                    * MULLIKEN POPULATION ANALYSIS *
                    ********************************

------------------------------------------
MULLIKEN ATOMIC CHARGES AND SPIN DENSITIES
------------------------------------------
   0 B :    0.021275    0.935572
   1 H :   -0.021275   -0.935572
Sum of atomic charges       :   -0.0000000
Sum of atomic spin densities:   -0.0000000

---------------------------------------------------
MULLIKEN REDUCED ORBITAL CHARGES AND SPIN DENSITIES
---------------------------------------------------
CHARGE
  0 B s       :     3.878787  s :     3.878787
      pz      :     0.052041  p :     1.076933
      px      :     0.972851
      py      :     0.052041
      dz2     :     0.002453  d :     0.022012
      dxz     :     0.006215
      dyz     :     0.000228
      dx2y2   :     0.006901
      dxy     :     0.006215
      f0      :     0.000093  f :     0.000869
      f+1     :     0.000137
      f-1     :     0.000033
      f+2     :     0.000142
      f-2     :     0.000100
      f+3     :     0.000162
      f-3     :     0.000202
      g0      :     0.000010  g :     0.000124
      g+1     :     0.000017
      g-1     :     0.000004
      g+2     :     0.000013
      g-2     :     0.000011
      g+3     :     0.000015
      g-3     :     0.000012
      g+4     :     0.000021
      g-4     :     0.000022
  1 H s       :     1.016843  s :     1.016843
      pz      :     0.000456  p :     0.003663
      px      :     0.002751
      py      :     0.000456
      dz2     :     0.000154  d :     0.000740
      dxz     :     0.000066
      dyz     :     0.000008
      dx2y2   :     0.000447
      dxy     :     0.000066
      f0      :     0.000003  f :     0.000029
      f+1     :     0.000005
      f-1     :     0.000001
      f+2     :     0.000005
      f-2     :     0.000002
      f+3     :     0.000008
      f-3     :     0.000007

SPIN
  0 B s       :     0.016769  s :     0.016769
      pz      :    -0.001753  p :     0.909235
      px      :     0.912740
      py      :    -0.001753
      dz2     :     0.000871  d :     0.009059
      dxz     :     0.002777
      dyz     :    -0.000021
      dx2y2   :     0.002656
      dxy     :     0.002777
      f0      :     0.000038  f :     0.000469
      f+1     :     0.000094
      f-1     :     0.000005
      f+2     :     0.000064
      f-2     :     0.000043
      f+3     :     0.000129
      f-3     :     0.000097
      g0      :     0.000003  g :     0.000041
      g+1     :     0.000005
      g-1     :     0.000001
      g+2     :     0.000004
      g-2     :     0.000003
      g+3     :     0.000005
      g-3     :     0.000005
      g+4     :     0.000008
      g-4     :     0.000007
  1 H s       :    -0.935653  s :    -0.935653
      pz      :    -0.000147  p :    -0.000131
      px      :     0.000163
      py      :    -0.000147
      dz2     :     0.000055  d :     0.000220
      dxz     :    -0.000001
      dyz     :    -0.000001
      dx2y2   :     0.000168
      dxy     :    -0.000001
      f0      :     0.000000  f :    -0.000008
      f+1     :    -0.000003
      f-1     :     0.000000
      f+2     :     0.000000
      f-2     :    -0.000000
      f+3     :    -0.000006
      f-3     :     0.000001


                     *******************************
                     * LOEWDIN POPULATION ANALYSIS *
                     *******************************

-----------------------------------------
LOEWDIN ATOMIC CHARGES AND SPIN DENSITIES
-----------------------------------------
   0 B :    0.013432    0.811209
   1 H :   -0.013432   -0.811209

--------------------------------------------------
LOEWDIN REDUCED ORBITAL CHARGES AND SPIN DENSITIES
--------------------------------------------------
CHARGE
  0 B s       :     3.844909  s :     3.844909
      pz      :     0.052008  p :     1.068640
      px      :     0.964623
      py      :     0.052008
      dz2     :     0.011072  d :     0.056428
      dxz     :     0.006184
      dyz     :     0.000229
      dx2y2   :     0.032759
      dxy     :     0.006184
      f0      :     0.000097  f :     0.015731
      f+1     :     0.005703
      f-1     :     0.000033
      f+2     :     0.000148
      f-2     :     0.000100
      f+3     :     0.009439
      f-3     :     0.000211
      g0      :     0.000113  g :     0.000860
      g+1     :     0.000018
      g-1     :     0.000004
      g+2     :     0.000242
      g-2     :     0.000011
      g+3     :     0.000016
      g-3     :     0.000012
      g+4     :     0.000422
      g-4     :     0.000022
  1 H s       :     0.951964  s :     0.951964
      pz      :     0.000462  p :     0.046149
      px      :     0.045225
      py      :     0.000462
      dz2     :     0.003425  d :     0.013897
      dxz     :     0.000102
      dyz     :     0.000008
      dx2y2   :     0.010260
      dxy     :     0.000102
      f0      :     0.000007  f :     0.001422
      f+1     :     0.000519
      f-1     :     0.000002
      f+2     :     0.000012
      f-2     :     0.000002
      f+3     :     0.000864
      f-3     :     0.000017

SPIN
  0 B s       :     0.008915  s :     0.008915
      pz      :    -0.001755  p :     0.841917
      px      :     0.845428
      py      :    -0.001755
      dz2     :    -0.007658  d :    -0.025128
      dxz     :     0.002742
      dyz     :    -0.000021
      dx2y2   :    -0.022933
      dxy     :     0.002742
      f0      :     0.000034  f :    -0.013840
      f+1     :    -0.005265
      f-1     :     0.000004
      f+2     :     0.000058
      f-2     :     0.000043
      f+3     :    -0.008803
      f-3     :     0.000089
      g0      :    -0.000095  g :    -0.000655
      g+1     :     0.000005
      g-1     :     0.000001
      g+2     :    -0.000212
      g-2     :     0.000003
      g+3     :     0.000004
      g-3     :     0.000005
      g+4     :    -0.000372
      g-4     :     0.000006
  1 H s       :    -0.837893  s :    -0.837893
      pz      :    -0.000124  p :     0.018481
      px      :     0.018729
      py      :    -0.000124
      dz2     :     0.001839  d :     0.007392
      dxz     :     0.000018
      dyz     :    -0.000001
      dx2y2   :     0.005519
      dxy     :     0.000018
      f0      :     0.000002  f :     0.000810
      f+1     :     0.000300
      f-1     :     0.000000
      f+2     :     0.000003
      f-2     :    -0.000000
      f+3     :     0.000500
      f-3     :     0.000005


                      *****************************
                      * MAYER POPULATION ANALYSIS *
                      *****************************

  NA   - Mulliken gross atomic population
  ZA   - Total nuclear charge
  QA   - Mulliken gross atomic charge
  VA   - Mayer's total valence
  BVA  - Mayer's bonded valence
  FA   - Mayer's free valence

  ATOM       NA         ZA         QA         VA         BVA        FA
  0 B      4.9787     5.0000     0.0213     1.5108     0.0616     1.4492
  1 H      1.0213     1.0000    -0.0213     1.0143     0.0616     0.9528

  Mayer bond orders larger than 0.100000




------------------------------------------------------------------------------- 
                                     TIMINGS                                   
------------------------------------------------------------------------------- 


Total execution time                   ...       62.229 sec

Fock Matrix Formation                  ...        1.239 sec (  2.0%)
Initial Guess                          ...        0.000 sec (  0.0%)
DIIS Solver                            ...        0.129 sec (  0.2%)
State Vector Update                    ...        0.007 sec (  0.0%)
Sigma-vector construction              ...       52.428 sec ( 84.2%)
  <0|H|D>                              ...        0.011 sec (  0.0% of sigma)
  <D|H|D>(0-ext Fock)                  ...        0.013 sec (  0.0% of sigma)
  <D|H|D>(0-ext)                       ...        0.011 sec (  0.0% of sigma)
  <D|H|D>(2-ext Fock)                  ...        0.024 sec (  0.0% of sigma)
  <D|H|D>(2-ext)                       ...        0.179 sec (  0.3% of sigma)
  <D|H|D>(4-ext)                       ...       14.961 sec ( 28.5% of sigma)
  <S|H|S>                              ...        0.001 sec (  0.0% of sigma)
  <S|H|D>(1-ext)                       ...        0.004 sec (  0.0% of sigma)
  <D|H|S>(1-ext)                       ...        0.030 sec (  0.1% of sigma)
  Fock-dressing                        ...       34.534 sec ( 65.9% of sigma)
  (ik|jl)-dressing                     ...        0.013 sec (  0.0% of sigma)
  (ij|ab),(ia|jb)-dressing             ...        2.080 sec (  4.0% of sigma)
  Pair energies                        ...        0.008 sec (  0.0% of sigma)


Maximum memory used throughout the entire MDCI-calculation: 386.3 MB

-------------------------   --------------------
FINAL SINGLE POINT ENERGY       -25.102483712085
-------------------------   --------------------


                            ***************************************
                            *     ORCA property calculations      *
                            ***************************************

                                    ---------------------
                                    Active property flags
                                    ---------------------
   (+) Dipole Moment


------------------------------------------------------------------------------
                       ORCA ELECTRIC PROPERTIES CALCULATION
------------------------------------------------------------------------------

Dipole Moment Calculation                       ... on
Quadrupole Moment Calculation                   ... off
Polarizability Calculation                      ... off
GBWName                                         ... /scratch/BH-3.2-UCCSD-O_683/BH-3.2-UCCSD-O.gbw
Electron density file                           ... /scratch/BH-3.2-UCCSD-O_683/BH-3.2-UCCSD-O.scfp
The origin for moment calculation is the CENTER OF MASS  = ( 0.515781,  0.000000  0.000000)

-------------
DIPOLE MOMENT
-------------
                                X             Y             Z
Electronic contribution:     -3.01616      -0.00000      -0.00000
Nuclear contribution   :      2.95244       0.00000       0.00000
                        -----------------------------------------
Total Dipole Moment    :     -0.06373      -0.00000      -0.00000
                        -----------------------------------------
Magnitude (a.u.)       :      0.06373
Magnitude (Debye)      :      0.16198



--------------------
Rotational spectrum 
--------------------
 
Rotational constants in cm-1:     0.000000     1.785479     1.785479 
Rotational constants in MHz :     0.000000 53527.308559 53527.308559 

 Dipole components along the rotational axes: 
x,y,z [a.u.] :    -0.063725    -0.000000    -0.000000 
x,y,z [Debye]:    -0.161977    -0.000000    -0.000000 

 

                           *** MDCI DENSITY ***

------------------------------------------------------------------------------
                       ORCA ELECTRIC PROPERTIES CALCULATION
------------------------------------------------------------------------------

Dipole Moment Calculation                       ... on
Quadrupole Moment Calculation                   ... off
Polarizability Calculation                      ... off
GBWName                                         ... /scratch/BH-3.2-UCCSD-O_683/BH-3.2-UCCSD-O.gbw
Electron density file                           ... /scratch/BH-3.2-UCCSD-O_683/BH-3.2-UCCSD-O.mdcip
The origin for moment calculation is the CENTER OF MASS  = ( 0.515781,  0.000000  0.000000)

-------------
DIPOLE MOMENT
-------------
                                X             Y             Z
Electronic contribution:     -3.12020       0.00000       0.00000
Nuclear contribution   :      2.95244       0.00000       0.00000
                        -----------------------------------------
Total Dipole Moment    :     -0.16776       0.00000       0.00000
                        -----------------------------------------
Magnitude (a.u.)       :      0.16776
Magnitude (Debye)      :      0.42641



--------------------
Rotational spectrum 
--------------------
 
Rotational constants in cm-1:     0.000000     1.785479     1.785479 
Rotational constants in MHz :     0.000000 53527.308559 53527.308559 

 Dipole components along the rotational axes: 
x,y,z [a.u.] :    -0.167760     0.000000     0.000000 
x,y,z [Debye]:    -0.426412     0.000000     0.000000 

 

Timings for individual modules:

Sum of individual times         ...       63.976 sec (=   1.066 min)
GTO integral calculation        ...        0.161 sec (=   0.003 min)   0.3 %
SCF iterations                  ...        1.400 sec (=   0.023 min)   2.2 %
MDCI module                     ...       62.415 sec (=   1.040 min)  97.6 %
                             ****ORCA TERMINATED NORMALLY****
TOTAL RUN TIME: 0 days 0 hours 1 minutes 4 seconds 119 msec

Sender: Unischeduler System <lcz@mgt01>
Subject: Job 134312: <#!/bin/bash
#BSUB -J intel
#BSUB -o BH-3.2-UCCSD-O.out
#BSUB -n 1
#BSUB -q cqueue
export LD_LIBRARY_PATH=/apps/software/openmpi-4.1.1/lib:/apps/software/orca_5_0_0:$LD_LIBRARY_PATH
export PATH=/apps/software/openmpi-4.1.1/bin:/apps/software/orca_5_0_0:$PATH
mkdir /scratch/BH-3.2-UCCSD-O_683
scp $USER@mgt01:/apps/users/lcz/exe13/UCCSD/BH-3.2-UCCSD-O.inp /scratch/BH-3.2-UCCSD-O_683
scp $USER@mgt01:/apps/users/lcz/exe13/UCCSD/BH-3.2-UHF-O.gbw /scratch/BH-3.2-UCCSD-O_683
/apps/software/orca_5_0_0/orca /scratch/BH-3.2-UCCSD-O_683/BH-3.2-UCCSD-O.inp >& BH-3.2-UCCSD-O.out
scp /scratch/BH-3.2-UCCSD-O_683/*.gbw $USER@mgt01:/apps/users/lcz/exe13/UCCSD
scp /scratch/BH-3.2-UCCSD-O_683/*.xyz $USER@mgt01:/apps/users/lcz/exe13/UCCSD
scp /scratch/BH-3.2-UCCSD-O_683/*.trj $USER@mgt01:/apps/users/lcz/exe13/UCCSD> Exited

Job <#!/bin/bash
#BSUB -J intel
#BSUB -o BH-3.2-UCCSD-O.out
#BSUB -n 1
#BSUB -q cqueue
export LD_LIBRARY_PATH=/apps/software/openmpi-4.1.1/lib:/apps/software/orca_5_0_0:$LD_LIBRARY_PATH
export PATH=/apps/software/openmpi-4.1.1/bin:/apps/software/orca_5_0_0:$PATH
mkdir /scratch/BH-3.2-UCCSD-O_683
scp $USER@mgt01:/apps/users/lcz/exe13/UCCSD/BH-3.2-UCCSD-O.inp /scratch/BH-3.2-UCCSD-O_683
scp $USER@mgt01:/apps/users/lcz/exe13/UCCSD/BH-3.2-UHF-O.gbw /scratch/BH-3.2-UCCSD-O_683
/apps/software/orca_5_0_0/orca /scratch/BH-3.2-UCCSD-O_683/BH-3.2-UCCSD-O.inp >& BH-3.2-UCCSD-O.out
scp /scratch/BH-3.2-UCCSD-O_683/*.gbw $USER@mgt01:/apps/users/lcz/exe13/UCCSD
scp /scratch/BH-3.2-UCCSD-O_683/*.xyz $USER@mgt01:/apps/users/lcz/exe13/UCCSD
scp /scratch/BH-3.2-UCCSD-O_683/*.trj $USER@mgt01:/apps/users/lcz/exe13/UCCSD> was submitted from host <mgt01> by user <lcz>.
Job was executed on host(s) <1*cnode03>, in queue <cqueue>, as user <lcz>.
</apps/users/lcz> was used as the home directory.
</apps/users/lcz/exe13/UCCSD> was used as the working directory.
Started at 2022-05-22 20:48:17
Results reported at 2022-05-22 20:49:23

Your job looked like:

------------------------------------------------------------
# User input
#!/bin/bash
#BSUB -J intel
#BSUB -o BH-3.2-UCCSD-O.out
#BSUB -n 1
#BSUB -q cqueue
export LD_LIBRARY_PATH=/apps/software/openmpi-4.1.1/lib:/apps/software/orca_5_0_0:$LD_LIBRARY_PATH
export PATH=/apps/software/openmpi-4.1.1/bin:/apps/software/orca_5_0_0:$PATH
mkdir /scratch/BH-3.2-UCCSD-O_683
scp $USER@mgt01:/apps/users/lcz/exe13/UCCSD/BH-3.2-UCCSD-O.inp /scratch/BH-3.2-UCCSD-O_683
scp $USER@mgt01:/apps/users/lcz/exe13/UCCSD/BH-3.2-UHF-O.gbw /scratch/BH-3.2-UCCSD-O_683
/apps/software/orca_5_0_0/orca /scratch/BH-3.2-UCCSD-O_683/BH-3.2-UCCSD-O.inp >& BH-3.2-UCCSD-O.out
scp /scratch/BH-3.2-UCCSD-O_683/*.gbw $USER@mgt01:/apps/users/lcz/exe13/UCCSD
scp /scratch/BH-3.2-UCCSD-O_683/*.xyz $USER@mgt01:/apps/users/lcz/exe13/UCCSD
scp /scratch/BH-3.2-UCCSD-O_683/*.trj $USER@mgt01:/apps/users/lcz/exe13/UCCSD
------------------------------------------------------------

Exited with exit code 1.

Resource usage summary:

    CPU time   :           56.07 sec.
    Max Memory :               503 MB
    Max Processes  :               5


The output (if any) follows:

/scratch/BH-3.2-UCCSD-O_683/*.xyz: No such file or directory
/scratch/BH-3.2-UCCSD-O_683/*.trj: No such file or directory
