 Entering Gaussian System, Link 0=/apps/software/g16/g16
 Initial command:
 /apps/software/g16/l1.exe "/scratch/Gau-404118.inp" -scrdir="/scratch/"
 Entering Link 1 = /apps/software/g16/l1.exe PID=    404119.
  
 Copyright (c) 1988,1990,1992,1993,1995,1998,2003,2009,2016,
            Gaussian, Inc.  All Rights Reserved.
  
 This is part of the Gaussian(R) 16 program.  It is based on
 the Gaussian(R) 09 system (copyright 2009, Gaussian, Inc.),
 the Gaussian(R) 03 system (copyright 2003, Gaussian, Inc.),
 the Gaussian(R) 98 system (copyright 1998, Gaussian, Inc.),
 the Gaussian(R) 94 system (copyright 1995, Gaussian, Inc.),
 the Gaussian 92(TM) system (copyright 1992, Gaussian, Inc.),
 the Gaussian 90(TM) system (copyright 1990, Gaussian, Inc.),
 the Gaussian 88(TM) system (copyright 1988, Gaussian, Inc.),
 the Gaussian 86(TM) system (copyright 1986, Carnegie Mellon
 University), and the Gaussian 82(TM) system (copyright 1983,
 Carnegie Mellon University). Gaussian is a federally registered
 trademark of Gaussian, Inc.
  
 This software contains proprietary and confidential information,
 including trade secrets, belonging to Gaussian, Inc.
  
 This software is provided under written license and may be
 used, copied, transmitted, or stored only in accord with that
 written license.
  
 The following legend is applicable only to US Government
 contracts under FAR:
  
                    RESTRICTED RIGHTS LEGEND
  
 Use, reproduction and disclosure by the US Government is
 subject to restrictions as set forth in subparagraphs (a)
 and (c) of the Commercial Computer Software - Restricted
 Rights clause in FAR 52.227-19.
  
 Gaussian, Inc.
 340 Quinnipiac St., Bldg. 40, Wallingford CT 06492
  
  
 ---------------------------------------------------------------
 Warning -- This program may not be used in any manner that
 competes with the business of Gaussian, Inc. or will provide
 assistance to any competitor of Gaussian, Inc.  The licensee
 of this program is prohibited from giving any competitor of
 Gaussian, Inc. access to this program.  By using this program,
 the user acknowledges that Gaussian, Inc. is engaged in the
 business of creating and licensing software in the field of
 computational chemistry and represents and warrants to the
 licensee that it is not a competitor of Gaussian, Inc. and that
 it will not use this program in any manner prohibited above.
 ---------------------------------------------------------------
  

 Cite this work as:
 Gaussian 16, Revision A.03,
 M. J. Frisch, G. W. Trucks, H. B. Schlegel, G. E. Scuseria, 
 M. A. Robb, J. R. Cheeseman, G. Scalmani, V. Barone, 
 G. A. Petersson, H. Nakatsuji, X. Li, M. Caricato, A. V. Marenich, 
 J. Bloino, B. G. Janesko, R. Gomperts, B. Mennucci, H. P. Hratchian, 
 J. V. Ortiz, A. F. Izmaylov, J. L. Sonnenberg, D. Williams-Young, 
 F. Ding, F. Lipparini, F. Egidi, J. Goings, B. Peng, A. Petrone, 
 T. Henderson, D. Ranasinghe, V. G. Zakrzewski, J. Gao, N. Rega, 
 G. Zheng, W. Liang, M. Hada, M. Ehara, K. Toyota, R. Fukuda, 
 J. Hasegawa, M. Ishida, T. Nakajima, Y. Honda, O. Kitao, H. Nakai, 
 T. Vreven, K. Throssell, J. A. Montgomery, Jr., J. E. Peralta, 
 F. Ogliaro, M. J. Bearpark, J. J. Heyd, E. N. Brothers, K. N. Kudin, 
 V. N. Staroverov, T. A. Keith, R. Kobayashi, J. Normand, 
 K. Raghavachari, A. P. Rendell, J. C. Burant, S. S. Iyengar, 
 J. Tomasi, M. Cossi, J. M. Millam, M. Klene, C. Adamo, R. Cammi, 
 J. W. Ochterski, R. L. Martin, K. Morokuma, O. Farkas, 
 J. B. Foresman, and D. J. Fox, Gaussian, Inc., Wallingford CT, 2016.
 
 ******************************************
 Gaussian 16:  ES64L-G16RevA.03 25-Dec-2016
                22-May-2022 
 ******************************************
 %chk=BH-3.8-UHF-G.chk
 ---------------------------------------
 #p UHF/aug-cc-pVQZ guess=mix stable=opt
 ---------------------------------------
 1/38=1,172=1/1;
 2/12=2,17=6,18=5,40=1/2;
 3/5=16,6=2,7=10,11=2,25=1,30=1,116=2/1,2,3;
 4/13=-1/1;
 5/5=2,38=5/2;
 6/7=2,8=2,9=2,10=2,28=1/1;
 8/6=1,10=90,11=11/1;
 9/8=-3,42=1,46=1/14;
 5/5=2,8=3,17=40,38=5/8(-2);
 6/7=2,8=2,9=2,10=2,28=1/1;
 99/5=1,9=1/99;
 Leave Link    1 at Sun May 22 18:35:22 2022, MaxMem=           0 cpu:               0.0 elap:               0.0
 (Enter /apps/software/g16/l101.exe)
 ----------------------
 BH UHF at 3.8 Angstrom
 ----------------------
 Symbolic Z-matrix:
 Charge =  0 Multiplicity = 1
 B                     0.        0.        0. 
 H                     3.8       0.        0. 
 
 ITRead=  0  0
 MicOpt= -1 -1
 NAtoms=      2 NQM=        2 NQMF=       0 NMMI=      0 NMMIF=      0
                NMic=       0 NMicF=      0.
                    Isotopes and Nuclear Properties:
 (Nuclear quadrupole moments (NQMom) in fm**2, nuclear magnetic moments (NMagM)
  in nuclear magnetons)

  Atom         1           2
 IAtWgt=          11           1
 AtmWgt=  11.0093053   1.0078250
 NucSpn=           3           1
 AtZEff=  -0.0000000  -0.0000000
 NQMom=    4.0590000   0.0000000
 NMagM=    2.6886370   2.7928460
 AtZNuc=   5.0000000   1.0000000
 Leave Link  101 at Sun May 22 18:35:22 2022, MaxMem=   104857600 cpu:               0.1 elap:               0.1
 (Enter /apps/software/g16/l202.exe)
                          Input orientation:                          
 ---------------------------------------------------------------------
 Center     Atomic      Atomic             Coordinates (Angstroms)
 Number     Number       Type             X           Y           Z
 ---------------------------------------------------------------------
      1          5           0        0.000000    0.000000    0.000000
      2          1           0        3.800000    0.000000    0.000000
 ---------------------------------------------------------------------
 Stoichiometry    BH
 Framework group  C*V[C*(HB)]
 Deg. of freedom     1
 Full point group                 C*V     NOp   4
 Largest Abelian subgroup         C2V     NOp   4
 Largest concise Abelian subgroup C1      NOp   1
                         Standard orientation:                         
 ---------------------------------------------------------------------
 Center     Atomic      Atomic             Coordinates (Angstroms)
 Number     Number       Type             X           Y           Z
 ---------------------------------------------------------------------
      1          5           0        0.000000    0.000000    0.633333
      2          1           0        0.000000    0.000000   -3.166667
 ---------------------------------------------------------------------
 Rotational constants (GHZ):           0.0000000          37.9058046          37.9058046
 Leave Link  202 at Sun May 22 18:35:22 2022, MaxMem=   104857600 cpu:               0.0 elap:               0.0
 (Enter /apps/software/g16/l301.exe)
 Standard basis: Aug-CC-pVQZ (5D, 7F)
 Ernie: Thresh=  0.10000D-02 Tol=  0.10000D-05 Strict=F.
 Ernie:  4 primitive shells out of 54 were deleted.
 There are    68 symmetry adapted cartesian basis functions of A1  symmetry.
 There are    18 symmetry adapted cartesian basis functions of A2  symmetry.
 There are    37 symmetry adapted cartesian basis functions of B1  symmetry.
 There are    37 symmetry adapted cartesian basis functions of B2  symmetry.
 There are    50 symmetry adapted basis functions of A1  symmetry.
 There are    16 symmetry adapted basis functions of A2  symmetry.
 There are    30 symmetry adapted basis functions of B1  symmetry.
 There are    30 symmetry adapted basis functions of B2  symmetry.
   126 basis functions,   180 primitive gaussians,   160 cartesian basis functions
     3 alpha electrons        3 beta electrons
       nuclear repulsion energy         0.6962858038 Hartrees.
 IExCor=    0 DFT=F Ex=HF Corr=None ExCW=0 ScaHFX=  1.000000
 ScaDFX=  1.000000  1.000000  1.000000  1.000000 ScalE2=  1.000000  1.000000
 IRadAn=      5 IRanWt=     -1 IRanGd=            0 ICorTp=0 IEmpDi=  4
 NAtoms=    2 NActive=    2 NUniq=    2 SFac= 1.00D+00 NAtFMM=   60 NAOKFM=F Big=F
 Integral buffers will be    131072 words long.
 Raffenetti 2 integral format.
 Two-electron integral symmetry is turned on.
 Leave Link  301 at Sun May 22 18:35:22 2022, MaxMem=   104857600 cpu:               0.1 elap:               0.1
 (Enter /apps/software/g16/l302.exe)
 NPDir=0 NMtPBC=     1 NCelOv=     1 NCel=       1 NClECP=     1 NCelD=      1
         NCelK=      1 NCelE2=     1 NClLst=     1 CellRange=     0.0.
 One-electron integrals computed using PRISM.
 One-electron integral symmetry used in STVInt
 NBasis=   126 RedAO= T EigKep=  1.05D-02  NBF=    50    16    30    30
 NBsUse=   126 1.00D-06 EigRej= -1.00D+00 NBFU=    50    16    30    30
 Leave Link  302 at Sun May 22 18:35:22 2022, MaxMem=   104857600 cpu:               0.1 elap:               0.1
 (Enter /apps/software/g16/l303.exe)
 DipDrv:  MaxL=1.
 Leave Link  303 at Sun May 22 18:35:22 2022, MaxMem=   104857600 cpu:               0.0 elap:               0.0
 (Enter /apps/software/g16/l401.exe)
 ExpMin= 1.88D-02 ExpMax= 2.39D+04 ExpMxC= 2.30D+02 IAcc=3 IRadAn=         5 AccDes= 0.00D+00
 Harris functional with IExCor=  205 and IRadAn=       5 diagonalized for initial guess.
 HarFok:  IExCor=  205 AccDes= 0.00D+00 IRadAn=         5 IDoV= 1 UseB2=F ITyADJ=14
 ICtDFT=  3500011 ScaDFX=  1.000000  1.000000  1.000000  1.000000
 FoFCou: FMM=F IPFlag=           0 FMFlag=      100000 FMFlg1=           0
         NFxFlg=           0 DoJE=T BraDBF=F KetDBF=T FulRan=T
         wScrn=  0.000000 ICntrl=       500 IOpCl=  0 I1Cent=   200000004 NGrid=           0
         NMat0=    1 NMatS0=      1 NMatT0=    0 NMatD0=    1 NMtDS0=    0 NMtDT0=    0
 Petite list used in FoFCou.
 Harris En= -24.9904922858233    
 JPrj=0 DoOrth=F DoCkMO=T.
 Mixing orbitals, IMix= 1 IMixAn=  0 NRI=1 NE=    3 Coef=  7.07106781D-01  7.07106781D-01
 Mixing orbitals, IMix= 1 IMixAn=  0 NRI=1 NE=    3 Coef= -7.07106781D-01  7.07106781D-01
 Initial guess orbital symmetries:
 Alpha Orbitals:
       Occupied  (SG) (SG) (?A)
       Virtual   (?A) (?A) (SG) (SG) (PI) (PI) (SG) (SG) (PI) (PI)
                 (DLTA) (DLTA) (SG) (PI) (PI) (SG) (PI) (PI) (SG)
                 (SG) (SG) (PI) (PI) (SG) (DLTA) (DLTA) (DLTA)
                 (DLTA) (PHI) (PHI) (PI) (PI) (SG) (DLTA) (DLTA)
                 (PI) (PI) (SG) (PI) (PI) (SG) (PI) (PI) (SG) (SG)
                 (PI) (PI) (DLTA) (DLTA) (SG) (PI) (PI) (DLTA)
                 (DLTA) (PHI) (PHI) (?B) (?B) (SG) (DLTA) (DLTA)
                 (PHI) (PHI) (PI) (PI) (SG) (PHI) (PHI) (SG) (DLTA)
                 (DLTA) (PI) (PI) (SG) (DLTA) (DLTA) (PI) (PI)
                 (PI) (PI) (SG) (SG) (PI) (PI) (SG) (DLTA) (DLTA)
                 (PI) (PI) (SG) (?B) (PHI) (PHI) (?B) (DLTA) (DLTA)
                 (PI) (PI) (SG) (PHI) (PHI) (DLTA) (DLTA) (PI)
                 (PI) (SG) (PHI) (PHI) (DLTA) (DLTA) (PI) (PI)
                 (SG) (SG) (PI) (PI) (SG) (DLTA) (DLTA) (PI) (PI)
                 (SG) (SG)
 Beta  Orbitals:
       Occupied  (SG) (SG) (?A)
       Virtual   (?A) (?A) (SG) (SG) (PI) (PI) (SG) (SG) (PI) (PI)
                 (DLTA) (DLTA) (SG) (PI) (PI) (SG) (PI) (PI) (SG)
                 (SG) (SG) (PI) (PI) (SG) (DLTA) (DLTA) (DLTA)
                 (DLTA) (PHI) (PHI) (PI) (PI) (SG) (DLTA) (DLTA)
                 (PI) (PI) (SG) (PI) (PI) (SG) (PI) (PI) (SG) (SG)
                 (PI) (PI) (DLTA) (DLTA) (SG) (PI) (PI) (DLTA)
                 (DLTA) (PHI) (PHI) (?B) (?B) (SG) (DLTA) (DLTA)
                 (PHI) (PHI) (PI) (PI) (SG) (PHI) (PHI) (SG) (DLTA)
                 (DLTA) (PI) (PI) (SG) (DLTA) (DLTA) (PI) (PI)
                 (PI) (PI) (SG) (SG) (PI) (PI) (SG) (DLTA) (DLTA)
                 (PI) (PI) (SG) (?B) (PHI) (PHI) (?B) (DLTA) (DLTA)
                 (PI) (PI) (SG) (PHI) (PHI) (DLTA) (DLTA) (PI)
                 (PI) (SG) (PHI) (PHI) (DLTA) (DLTA) (PI) (PI)
                 (SG) (SG) (PI) (PI) (SG) (DLTA) (DLTA) (PI) (PI)
                 (SG) (SG)
 Initial guess <Sx>= 0.0000 <Sy>= 0.0000 <Sz>= 0.0000 <S**2>= 1.0000 S= 0.6180
 Leave Link  401 at Sun May 22 18:35:22 2022, MaxMem=   104857600 cpu:               0.2 elap:               0.2
 (Enter /apps/software/g16/l502.exe)
 Keep R1 and R2 ints in memory in symmetry-blocked form, NReq=40143665.
 FoFCou: FMM=F IPFlag=           0 FMFlag=           0 FMFlg1=           0
         NFxFlg=           0 DoJE=F BraDBF=F KetDBF=F FulRan=T
         wScrn=  0.000000 ICntrl=       600 IOpCl=  0 I1Cent=           0 NGrid=           0
         NMat0=    1 NMatS0=   8001 NMatT0=    0 NMatD0=    1 NMtDS0=    0 NMtDT0=    0
 Petite list used in FoFCou.
 UHF open shell SCF:
 Using DIIS extrapolation, IDIIS=  1040.
 NGot=   104857600 LenX=    88563632 LenY=    88537591
 Requested convergence on RMS density matrix=1.00D-08 within 128 cycles.
 Requested convergence on MAX density matrix=1.00D-06.
 Requested convergence on             energy=1.00D-06.
 No special actions if energy rises.
 An orbital has undefined symmetry, so N**3 symmetry is turned off.

 Cycle   1  Pass 1  IDiag  1:
 Density matrix breaks symmetry, PCut= 1.00D-07
 Density matrix has no symmetry -- integrals replicated.
 E= -24.8411495815637    
 DIIS: error= 2.63D-02 at cycle   1 NSaved=   1.
 NSaved= 1 IEnMin= 1 EnMin= -24.8411495815637     IErMin= 1 ErrMin= 2.63D-02
 ErrMax= 2.63D-02  0.00D+00 EMaxC= 1.00D-01 BMatC= 1.49D-01 BMatP= 1.49D-01
 IDIUse=3 WtCom= 7.37D-01 WtEn= 2.63D-01
 Coeff-Com:  0.100D+01
 Coeff-En:   0.100D+01
 Coeff:      0.100D+01
 Gap=     0.140 Goal=   None    Shift=    0.000
 Gap=     0.140 Goal=   None    Shift=    0.000
 GapD=    0.140 DampG=1.000 DampE=0.500 DampFc=0.5000 IDamp=-1.
 Damping current iteration by 5.00D-01
 RMSDP=1.68D-03 MaxDP=7.99D-02              OVMax= 3.53D-01

 Cycle   2  Pass 1  IDiag  1:
 Density matrix breaks symmetry, PCut= 1.00D-07
 Density matrix has no symmetry -- integrals replicated.
 E= -24.8617056987360     Delta-E=       -0.020556117172 Rises=F Damp=T
 DIIS: error= 1.67D-02 at cycle   2 NSaved=   2.
 NSaved= 2 IEnMin= 2 EnMin= -24.8617056987360     IErMin= 2 ErrMin= 1.67D-02
 ErrMax= 1.67D-02  0.00D+00 EMaxC= 1.00D-01 BMatC= 4.93D-02 BMatP= 1.49D-01
 IDIUse=3 WtCom= 8.33D-01 WtEn= 1.67D-01
 Coeff-Com: -0.663D+00 0.166D+01
 Coeff-En:   0.000D+00 0.100D+01
 Coeff:     -0.553D+00 0.155D+01
 Gap=     0.109 Goal=   None    Shift=    0.000
 Gap=     0.109 Goal=   None    Shift=    0.000
 RMSDP=1.21D-03 MaxDP=5.78D-02 DE=-2.06D-02 OVMax= 2.31D-01

 Cycle   3  Pass 1  IDiag  1:
 Density matrix breaks symmetry, PCut= 1.00D-07
 Density matrix has no symmetry -- integrals replicated.
 E= -24.8863757300989     Delta-E=       -0.024670031363 Rises=F Damp=F
 DIIS: error= 1.06D-02 at cycle   3 NSaved=   3.
 NSaved= 3 IEnMin= 3 EnMin= -24.8863757300989     IErMin= 3 ErrMin= 1.06D-02
 ErrMax= 1.06D-02  0.00D+00 EMaxC= 1.00D-01 BMatC= 6.97D-03 BMatP= 4.93D-02
 IDIUse=3 WtCom= 8.94D-01 WtEn= 1.06D-01
 Coeff-Com: -0.323D+00 0.558D+00 0.765D+00
 Coeff-En:   0.000D+00 0.000D+00 0.100D+01
 Coeff:     -0.289D+00 0.499D+00 0.790D+00
 Gap=     0.155 Goal=   None    Shift=    0.000
 Gap=     0.155 Goal=   None    Shift=    0.000
 RMSDP=6.44D-04 MaxDP=2.50D-02 DE=-2.47D-02 OVMax= 1.48D-01

 Cycle   4  Pass 1  IDiag  1:
 Density matrix breaks symmetry, PCut= 1.00D-07
 Density matrix has no symmetry -- integrals replicated.
 E= -24.8974247288093     Delta-E=       -0.011048998710 Rises=F Damp=F
 DIIS: error= 4.56D-03 at cycle   4 NSaved=   4.
 NSaved= 4 IEnMin= 4 EnMin= -24.8974247288093     IErMin= 4 ErrMin= 4.56D-03
 ErrMax= 4.56D-03  0.00D+00 EMaxC= 1.00D-01 BMatC= 2.30D-03 BMatP= 6.97D-03
 IDIUse=3 WtCom= 9.54D-01 WtEn= 4.56D-02
 Coeff-Com:  0.103D+00-0.220D+00 0.104D+00 0.101D+01
 Coeff-En:   0.000D+00 0.000D+00 0.000D+00 0.100D+01
 Coeff:      0.987D-01-0.210D+00 0.991D-01 0.101D+01
 Gap=     0.154 Goal=   None    Shift=    0.000
 Gap=     0.154 Goal=   None    Shift=    0.000
 RMSDP=4.14D-04 MaxDP=1.08D-02 DE=-1.10D-02 OVMax= 7.75D-02

 Cycle   5  Pass 1  IDiag  1:
 Density matrix breaks symmetry, PCut= 1.00D-07
 Density matrix has no symmetry -- integrals replicated.
 E= -24.9027243789400     Delta-E=       -0.005299650131 Rises=F Damp=F
 DIIS: error= 2.96D-03 at cycle   5 NSaved=   5.
 NSaved= 5 IEnMin= 5 EnMin= -24.9027243789400     IErMin= 5 ErrMin= 2.96D-03
 ErrMax= 2.96D-03  0.00D+00 EMaxC= 1.00D-01 BMatC= 9.21D-04 BMatP= 2.30D-03
 IDIUse=3 WtCom= 9.70D-01 WtEn= 2.96D-02
 Coeff-Com: -0.309D+00 0.598D+00-0.108D+00-0.172D+01 0.254D+01
 Coeff-En:   0.000D+00 0.000D+00 0.000D+00 0.000D+00 0.100D+01
 Coeff:     -0.300D+00 0.580D+00-0.105D+00-0.167D+01 0.249D+01
 Gap=     0.164 Goal=   None    Shift=    0.000
 Gap=     0.164 Goal=   None    Shift=    0.000
 RMSDP=6.18D-04 MaxDP=1.69D-02 DE=-5.30D-03 OVMax= 1.34D-01

 Cycle   6  Pass 1  IDiag  1:
 Density matrix breaks symmetry, PCut= 1.00D-07
 Density matrix has no symmetry -- integrals replicated.
 E= -24.9084985920078     Delta-E=       -0.005774213068 Rises=F Damp=F
 DIIS: error= 3.26D-03 at cycle   6 NSaved=   6.
 NSaved= 6 IEnMin= 6 EnMin= -24.9084985920078     IErMin= 5 ErrMin= 2.96D-03
 ErrMax= 3.26D-03  0.00D+00 EMaxC= 1.00D-01 BMatC= 5.53D-04 BMatP= 9.21D-04
 IDIUse=3 WtCom= 9.70D-01 WtEn= 2.96D-02
 Coeff-Com:  0.252D-01-0.500D-01-0.196D+00 0.593D+00-0.938D+00 0.157D+01
 Coeff-En:   0.000D+00 0.000D+00 0.000D+00 0.000D+00 0.000D+00 0.100D+01
 Coeff:      0.245D-01-0.485D-01-0.190D+00 0.575D+00-0.910D+00 0.155D+01
 Gap=     0.172 Goal=   None    Shift=    0.000
 Gap=     0.172 Goal=   None    Shift=    0.000
 RMSDP=3.82D-04 MaxDP=1.07D-02 DE=-5.77D-03 OVMax= 8.57D-02

 Cycle   7  Pass 1  IDiag  1:
 Density matrix breaks symmetry, PCut= 1.00D-07
 Density matrix has no symmetry -- integrals replicated.
 E= -24.9105141028101     Delta-E=       -0.002015510802 Rises=F Damp=F
 DIIS: error= 2.43D-03 at cycle   7 NSaved=   7.
 NSaved= 7 IEnMin= 7 EnMin= -24.9105141028101     IErMin= 7 ErrMin= 2.43D-03
 ErrMax= 2.43D-03  0.00D+00 EMaxC= 1.00D-01 BMatC= 3.08D-04 BMatP= 5.53D-04
 IDIUse=3 WtCom= 9.76D-01 WtEn= 2.43D-02
 Coeff-Com: -0.823D-01 0.164D+00-0.696D-01-0.789D+00 0.192D+01-0.214D+01
 Coeff-Com:  0.200D+01
 Coeff-En:   0.000D+00 0.000D+00 0.000D+00 0.000D+00 0.000D+00 0.000D+00
 Coeff-En:   0.100D+01
 Coeff:     -0.803D-01 0.160D+00-0.679D-01-0.770D+00 0.188D+01-0.209D+01
 Coeff:      0.197D+01
 Gap=     0.171 Goal=   None    Shift=    0.000
 Gap=     0.171 Goal=   None    Shift=    0.000
 RMSDP=1.78D-04 MaxDP=8.09D-03 DE=-2.02D-03 OVMax= 3.95D-02

 Cycle   8  Pass 1  IDiag  1:
 Density matrix breaks symmetry, PCut= 1.00D-07
 Density matrix has no symmetry -- integrals replicated.
 E= -24.9109885065459     Delta-E=       -0.000474403736 Rises=F Damp=F
 DIIS: error= 1.24D-03 at cycle   8 NSaved=   8.
 NSaved= 8 IEnMin= 8 EnMin= -24.9109885065459     IErMin= 8 ErrMin= 1.24D-03
 ErrMax= 1.24D-03  0.00D+00 EMaxC= 1.00D-01 BMatC= 1.34D-04 BMatP= 3.08D-04
 IDIUse=3 WtCom= 9.88D-01 WtEn= 1.24D-02
 Coeff-Com: -0.115D+00 0.215D+00 0.958D-01-0.745D+00 0.402D+00-0.248D+00
 Coeff-Com:  0.312D-01 0.136D+01
 Coeff-En:   0.000D+00 0.000D+00 0.000D+00 0.000D+00 0.000D+00 0.000D+00
 Coeff-En:   0.000D+00 0.100D+01
 Coeff:     -0.114D+00 0.213D+00 0.946D-01-0.736D+00 0.397D+00-0.245D+00
 Coeff:      0.308D-01 0.136D+01
 Gap=     0.176 Goal=   None    Shift=    0.000
 Gap=     0.176 Goal=   None    Shift=    0.000
 RMSDP=3.20D-04 MaxDP=8.95D-03 DE=-4.74D-04 OVMax= 7.08D-02

 Cycle   9  Pass 1  IDiag  1:
 Density matrix breaks symmetry, PCut= 1.00D-07
 Density matrix has no symmetry -- integrals replicated.
 E= -24.9113552583514     Delta-E=       -0.000366751805 Rises=F Damp=F
 DIIS: error= 1.60D-03 at cycle   9 NSaved=   9.
 NSaved= 9 IEnMin= 9 EnMin= -24.9113552583514     IErMin= 8 ErrMin= 1.24D-03
 ErrMax= 1.60D-03  0.00D+00 EMaxC= 1.00D-01 BMatC= 2.49D-04 BMatP= 1.34D-04
 IDIUse=3 WtCom= 9.88D-01 WtEn= 1.24D-02
 Coeff-Com:  0.292D-01-0.574D-01-0.493D-02 0.266D+00-0.537D+00 0.835D+00
 Coeff-Com: -0.159D+01 0.731D+00 0.132D+01
 Coeff-En:   0.000D+00 0.000D+00 0.000D+00 0.000D+00 0.000D+00 0.000D+00
 Coeff-En:   0.000D+00 0.000D+00 0.100D+01
 Coeff:      0.288D-01-0.567D-01-0.487D-02 0.263D+00-0.530D+00 0.824D+00
 Coeff:     -0.157D+01 0.722D+00 0.132D+01
 Gap=     0.177 Goal=   None    Shift=    0.000
 Gap=     0.177 Goal=   None    Shift=    0.000
 RMSDP=1.43D-04 MaxDP=4.63D-03 DE=-3.67D-04 OVMax= 3.23D-02

 Cycle  10  Pass 1  IDiag  1:
 Density matrix breaks symmetry, PCut= 1.00D-07
 Density matrix has no symmetry -- integrals replicated.
 E= -24.9117488049613     Delta-E=       -0.000393546610 Rises=F Damp=F
 DIIS: error= 3.20D-04 at cycle  10 NSaved=  10.
 NSaved=10 IEnMin=10 EnMin= -24.9117488049613     IErMin=10 ErrMin= 3.20D-04
 ErrMax= 3.20D-04  0.00D+00 EMaxC= 1.00D-01 BMatC= 7.36D-06 BMatP= 1.34D-04
 IDIUse=3 WtCom= 9.97D-01 WtEn= 3.20D-03
 Coeff-Com: -0.153D-03 0.116D-02-0.922D-02-0.371D-01 0.165D+00-0.353D+00
 Coeff-Com:  0.712D+00-0.456D+00-0.890D+00 0.187D+01
 Coeff-En:   0.000D+00 0.000D+00 0.000D+00 0.000D+00 0.000D+00 0.000D+00
 Coeff-En:   0.000D+00 0.000D+00 0.000D+00 0.100D+01
 Coeff:     -0.152D-03 0.116D-02-0.919D-02-0.370D-01 0.164D+00-0.352D+00
 Coeff:      0.709D+00-0.454D+00-0.887D+00 0.187D+01
 Gap=     0.177 Goal=   None    Shift=    0.000
 Gap=     0.177 Goal=   None    Shift=    0.000
 RMSDP=8.18D-05 MaxDP=2.87D-03 DE=-3.94D-04 OVMax= 1.87D-02

 Cycle  11  Pass 1  IDiag  1:
 Density matrix breaks symmetry, PCut= 1.00D-07
 Density matrix has no symmetry -- integrals replicated.
 E= -24.9117757921246     Delta-E=       -0.000026987163 Rises=F Damp=F
 DIIS: error= 4.61D-05 at cycle  11 NSaved=  11.
 NSaved=11 IEnMin=11 EnMin= -24.9117757921246     IErMin=11 ErrMin= 4.61D-05
 ErrMax= 4.61D-05  0.00D+00 EMaxC= 1.00D-01 BMatC= 2.03D-07 BMatP= 7.36D-06
 IDIUse=1 WtCom= 1.00D+00 WtEn= 0.00D+00
 Coeff-Com: -0.315D-02 0.603D-02 0.643D-02-0.261D-01 0.111D-01 0.264D-01
 Coeff-Com: -0.103D+00 0.121D+00 0.241D+00-0.983D+00 0.170D+01
 Coeff:     -0.315D-02 0.603D-02 0.643D-02-0.261D-01 0.111D-01 0.264D-01
 Coeff:     -0.103D+00 0.121D+00 0.241D+00-0.983D+00 0.170D+01
 Gap=     0.177 Goal=   None    Shift=    0.000
 Gap=     0.177 Goal=   None    Shift=    0.000
 RMSDP=1.84D-05 MaxDP=6.18D-04 DE=-2.70D-05 OVMax= 3.97D-03

 Cycle  12  Pass 1  IDiag  1:
 Density matrix breaks symmetry, PCut= 1.00D-07
 Density matrix has no symmetry -- integrals replicated.
 E= -24.9117750675880     Delta-E=        0.000000724537 Rises=F Damp=F
 DIIS: error= 5.33D-05 at cycle  12 NSaved=  12.
 NSaved=12 IEnMin=11 EnMin= -24.9117757921246     IErMin=11 ErrMin= 4.61D-05
 ErrMax= 5.33D-05  0.00D+00 EMaxC= 1.00D-01 BMatC= 3.10D-07 BMatP= 2.03D-07
 IDIUse=1 WtCom= 1.00D+00 WtEn= 0.00D+00
 Coeff-Com: -0.194D-02 0.386D-02 0.175D-02-0.212D-01 0.583D-01-0.974D-01
 Coeff-Com:  0.164D+00-0.973D-01-0.135D+00 0.372D+00-0.101D+01 0.176D+01
 Coeff:     -0.194D-02 0.386D-02 0.175D-02-0.212D-01 0.583D-01-0.974D-01
 Coeff:      0.164D+00-0.973D-01-0.135D+00 0.372D+00-0.101D+01 0.176D+01
 Gap=     0.177 Goal=   None    Shift=    0.000
 Gap=     0.177 Goal=   None    Shift=    0.000
 RMSDP=5.35D-06 MaxDP=1.59D-04 DE= 7.25D-07 OVMax= 9.85D-04

 Cycle  13  Pass 1  IDiag  1:
 Density matrix breaks symmetry, PCut= 1.00D-07
 Density matrix has no symmetry -- integrals replicated.
 E= -24.9117751761039     Delta-E=       -0.000000108516 Rises=F Damp=F
 DIIS: error= 7.68D-05 at cycle  13 NSaved=  13.
 NSaved=13 IEnMin=11 EnMin= -24.9117757921246     IErMin=11 ErrMin= 4.61D-05
 ErrMax= 7.68D-05  0.00D+00 EMaxC= 1.00D-01 BMatC= 6.67D-07 BMatP= 2.03D-07
 IDIUse=1 WtCom= 1.00D+00 WtEn= 0.00D+00
 Coeff-Com: -0.102D-02 0.237D-02-0.150D-02-0.192D-01 0.440D-01-0.384D-01
 Coeff-Com: -0.975D-02-0.121D-01 0.239D+00-0.618D+00 0.158D+01-0.653D+01
 Coeff-Com:  0.637D+01
 Coeff:     -0.102D-02 0.237D-02-0.150D-02-0.192D-01 0.440D-01-0.384D-01
 Coeff:     -0.975D-02-0.121D-01 0.239D+00-0.618D+00 0.158D+01-0.653D+01
 Coeff:      0.637D+01
 Gap=     0.177 Goal=   None    Shift=    0.000
 Gap=     0.177 Goal=   None    Shift=    0.000
 RMSDP=2.54D-05 MaxDP=7.26D-04 DE=-1.09D-07 OVMax= 4.82D-03

 Cycle  14  Pass 1  IDiag  1:
 Density matrix breaks symmetry, PCut= 1.00D-07
 Density matrix has no symmetry -- integrals replicated.
 E= -24.9117779746027     Delta-E=       -0.000002798499 Rises=F Damp=F
 DIIS: error= 1.63D-05 at cycle  14 NSaved=  14.
 NSaved=14 IEnMin=14 EnMin= -24.9117779746027     IErMin=14 ErrMin= 1.63D-05
 ErrMax= 1.63D-05  0.00D+00 EMaxC= 1.00D-01 BMatC= 1.63D-08 BMatP= 2.03D-07
 IDIUse=1 WtCom= 1.00D+00 WtEn= 0.00D+00
 Coeff-Com:  0.714D-03-0.155D-02 0.211D-02 0.117D-01-0.295D-01 0.191D-01
 Coeff-Com: -0.544D-02 0.254D-01-0.929D-01 0.184D+00-0.394D+00 0.189D+01
 Coeff-Com: -0.254D+01 0.194D+01
 Coeff:      0.714D-03-0.155D-02 0.211D-02 0.117D-01-0.295D-01 0.191D-01
 Coeff:     -0.544D-02 0.254D-01-0.929D-01 0.184D+00-0.394D+00 0.189D+01
 Coeff:     -0.254D+01 0.194D+01
 Gap=     0.177 Goal=   None    Shift=    0.000
 Gap=     0.177 Goal=   None    Shift=    0.000
 RMSDP=1.51D-05 MaxDP=4.59D-04 DE=-2.80D-06 OVMax= 2.75D-03

 Cycle  15  Pass 1  IDiag  1:
 Density matrix breaks symmetry, PCut= 1.00D-07
 Density matrix has no symmetry -- integrals replicated.
 E= -24.9117782469934     Delta-E=       -0.000000272391 Rises=F Damp=F
 DIIS: error= 1.41D-05 at cycle  15 NSaved=  15.
 NSaved=15 IEnMin=15 EnMin= -24.9117782469934     IErMin=15 ErrMin= 1.41D-05
 ErrMax= 1.41D-05  0.00D+00 EMaxC= 1.00D-01 BMatC= 1.62D-08 BMatP= 1.63D-08
 IDIUse=1 WtCom= 1.00D+00 WtEn= 0.00D+00
 Coeff-Com: -0.604D-04 0.105D-03 0.926D-05-0.965D-03-0.225D-03 0.331D-02
 Coeff-Com: -0.710D-02 0.609D-02 0.316D-02-0.179D-01-0.532D-02 0.468D-01
 Coeff-Com:  0.542D-01-0.168D+00 0.109D+01
 Coeff:     -0.604D-04 0.105D-03 0.926D-05-0.965D-03-0.225D-03 0.331D-02
 Coeff:     -0.710D-02 0.609D-02 0.316D-02-0.179D-01-0.532D-02 0.468D-01
 Coeff:      0.542D-01-0.168D+00 0.109D+01
 Gap=     0.177 Goal=   None    Shift=    0.000
 Gap=     0.177 Goal=   None    Shift=    0.000
 RMSDP=1.84D-06 MaxDP=6.30D-05 DE=-2.72D-07 OVMax= 4.20D-04

 Cycle  16  Pass 1  IDiag  1:
 Density matrix breaks symmetry, PCut= 1.00D-07
 Density matrix has no symmetry -- integrals replicated.
 E= -24.9117782754738     Delta-E=       -0.000000028480 Rises=F Damp=F
 DIIS: error= 3.14D-06 at cycle  16 NSaved=  16.
 NSaved=16 IEnMin=16 EnMin= -24.9117782754738     IErMin=16 ErrMin= 3.14D-06
 ErrMax= 3.14D-06  0.00D+00 EMaxC= 1.00D-01 BMatC= 7.21D-10 BMatP= 1.62D-08
 IDIUse=1 WtCom= 1.00D+00 WtEn= 0.00D+00
 Coeff-Com: -0.451D-05 0.112D-04-0.483D-05-0.791D-04 0.911D-04 0.357D-03
 Coeff-Com: -0.113D-02 0.692D-03 0.201D-02-0.545D-02 0.164D-01-0.494D-01
 Coeff-Com:  0.407D-01-0.104D-01-0.203D+00 0.121D+01
 Coeff:     -0.451D-05 0.112D-04-0.483D-05-0.791D-04 0.911D-04 0.357D-03
 Coeff:     -0.113D-02 0.692D-03 0.201D-02-0.545D-02 0.164D-01-0.494D-01
 Coeff:      0.407D-01-0.104D-01-0.203D+00 0.121D+01
 Gap=     0.177 Goal=   None    Shift=    0.000
 Gap=     0.177 Goal=   None    Shift=    0.000
 RMSDP=2.51D-07 MaxDP=1.18D-05 DE=-2.85D-08 OVMax= 5.34D-05

 Cycle  17  Pass 1  IDiag  1:
 Density matrix breaks symmetry, PCut= 1.00D-07
 Density matrix has no symmetry -- integrals replicated.
 E= -24.9117782765044     Delta-E=       -0.000000001031 Rises=F Damp=F
 DIIS: error= 4.13D-07 at cycle  17 NSaved=  17.
 NSaved=17 IEnMin=17 EnMin= -24.9117782765044     IErMin=17 ErrMin= 4.13D-07
 ErrMax= 4.13D-07  0.00D+00 EMaxC= 1.00D-01 BMatC= 1.51D-11 BMatP= 7.21D-10
 IDIUse=1 WtCom= 1.00D+00 WtEn= 0.00D+00
 Coeff-Com: -0.435D-05 0.806D-05 0.364D-06-0.233D-04 0.752D-04-0.141D-03
 Coeff-Com:  0.265D-03-0.220D-03-0.307D-04 0.622D-04-0.159D-02 0.100D-01
 Coeff-Com: -0.102D-01 0.314D-02 0.414D-01-0.266D+00 0.122D+01
 Coeff:     -0.435D-05 0.806D-05 0.364D-06-0.233D-04 0.752D-04-0.141D-03
 Coeff:      0.265D-03-0.220D-03-0.307D-04 0.622D-04-0.159D-02 0.100D-01
 Coeff:     -0.102D-01 0.314D-02 0.414D-01-0.266D+00 0.122D+01
 Gap=     0.177 Goal=   None    Shift=    0.000
 Gap=     0.177 Goal=   None    Shift=    0.000
 RMSDP=2.82D-08 MaxDP=8.80D-07 DE=-1.03D-09 OVMax= 5.86D-06

 Cycle  18  Pass 1  IDiag  1:
 Density matrix breaks symmetry, PCut= 1.00D-07
 Density matrix has no symmetry -- integrals replicated.
 E= -24.9117782765243     Delta-E=       -0.000000000020 Rises=F Damp=F
 DIIS: error= 6.42D-08 at cycle  18 NSaved=  18.
 NSaved=18 IEnMin=18 EnMin= -24.9117782765243     IErMin=18 ErrMin= 6.42D-08
 ErrMax= 6.42D-08  0.00D+00 EMaxC= 1.00D-01 BMatC= 3.79D-13 BMatP= 1.51D-11
 IDIUse=1 WtCom= 1.00D+00 WtEn= 0.00D+00
 Coeff-Com: -0.310D-06 0.798D-06-0.123D-05-0.707D-05 0.138D-04-0.594D-05
 Coeff-Com:  0.837D-06-0.662D-05 0.883D-05 0.118D-03 0.115D-03-0.270D-02
 Coeff-Com:  0.367D-02-0.296D-02-0.649D-02 0.499D-01-0.359D+00 0.132D+01
 Coeff:     -0.310D-06 0.798D-06-0.123D-05-0.707D-05 0.138D-04-0.594D-05
 Coeff:      0.837D-06-0.662D-05 0.883D-05 0.118D-03 0.115D-03-0.270D-02
 Coeff:      0.367D-02-0.296D-02-0.649D-02 0.499D-01-0.359D+00 0.132D+01
 Gap=     0.177 Goal=   None    Shift=    0.000
 Gap=     0.177 Goal=   None    Shift=    0.000
 RMSDP=1.36D-08 MaxDP=4.33D-07 DE=-1.99D-11 OVMax= 2.99D-06

 Cycle  19  Pass 1  IDiag  1:
 Density matrix breaks symmetry, PCut= 1.00D-07
 Density matrix has no symmetry -- integrals replicated.
 E= -24.9117782765252     Delta-E=       -0.000000000001 Rises=F Damp=F
 DIIS: error= 4.52D-09 at cycle  19 NSaved=  19.
 NSaved=19 IEnMin=19 EnMin= -24.9117782765252     IErMin=19 ErrMin= 4.52D-09
 ErrMax= 4.52D-09  0.00D+00 EMaxC= 1.00D-01 BMatC= 1.26D-15 BMatP= 3.79D-13
 IDIUse=1 WtCom= 1.00D+00 WtEn= 0.00D+00
 Large coefficients: NSaved= 19 BigCof=    0.00 CofMax=   10.00 Det=-1.76D-15
 Inversion failed.  Reducing to 18 matrices.
 Large coefficients: NSaved= 18 BigCof=    0.00 CofMax=   10.00 Det=-1.76D-15
 Inversion failed.  Reducing to 17 matrices.
 Large coefficients: NSaved= 17 BigCof=    0.00 CofMax=   10.00 Det=-2.02D-15
 Inversion failed.  Reducing to 16 matrices.
 Large coefficients: NSaved= 16 BigCof=    0.00 CofMax=   10.00 Det=-2.02D-15
 Inversion failed.  Reducing to 15 matrices.
 Coeff-Com:  0.211D-05-0.500D-05 0.103D-04-0.533D-05-0.440D-05-0.369D-04
 Coeff-Com:  0.153D-04 0.261D-03-0.443D-03 0.623D-03 0.854D-03-0.893D-02
 Coeff-Com:  0.870D-01-0.473D+00 0.139D+01
 Coeff:      0.211D-05-0.500D-05 0.103D-04-0.533D-05-0.440D-05-0.369D-04
 Coeff:      0.153D-04 0.261D-03-0.443D-03 0.623D-03 0.854D-03-0.893D-02
 Coeff:      0.870D-01-0.473D+00 0.139D+01
 Gap=     0.177 Goal=   None    Shift=    0.000
 Gap=     0.177 Goal=   None    Shift=    0.000
 RMSDP=1.18D-09 MaxDP=3.33D-08 DE=-9.20D-13 OVMax= 2.66D-07

 Density matrix breaks symmetry, PCut= 1.00D-07
 Density matrix has no symmetry -- integrals replicated.
 SCF Done:  E(UHF) =  -24.9117782765     A.U. after   19 cycles
            NFock= 19  Conv=0.12D-08     -V/T= 2.0064
 <Sx>= 0.0000 <Sy>= 0.0000 <Sz>= 0.0000 <S**2>= 0.1793 S= 0.1552
 <L.S>=  0.00000000000    
 KE= 2.475336507514D+01 PE=-5.849964451002D+01 EE= 8.138215354506D+00
 Annihilation of the first spin contaminant:
 S**2 before annihilation     0.1793,   after     0.0028
 Leave Link  502 at Sun May 22 18:35:26 2022, MaxMem=   104857600 cpu:               3.9 elap:               3.9
 (Enter /apps/software/g16/l601.exe)
 Copying SCF densities to generalized density rwf, IOpCl= 1 IROHF=0.
 SCF density gives NOpUse=  1 NOpAll=  4.
 Marking SCF density as not fully symmetric.

 **********************************************************************

            Population analysis using the SCF density.

 **********************************************************************

 Orbital symmetries:
 Alpha Orbitals:
       Occupied  (SG) (?A) (?A)
       Virtual   (?A) (?A) (?A) (?A) (?A) (?A) (SG) (SG) (?B) (?B)
                 (?B) (?B) (SG) (?C) (?C) (?C) (?C) (?C) (?C) (SG)
                 (?D) (?D) (?D) (?D) (?E) (?E) (?E) (?E) (?E) (?E)
                 (?E) (SG) (SG) (DLTA) (DLTA) (PI) (PI) (SG) (PI)
                 (PI) (?F) (?F) (?F) (?F) (?G) (?G) (?G) (?G) (?G)
                 (?G) (?G) (?G) (?G) (?G) (?G) (?G) (?G) (?G) (?G)
                 (?G) (?G) (?G) (?G) (?G) (?G) (SG) (PHI) (PHI)
                 (DLTA) (DLTA) (PI) (PI) (SG) (SG) (DLTA) (DLTA)
                 (PI) (PI) (PI) (PI) (SG) (SG) (?H) (?H) (?H) (?I)
                 (?I) (?I) (?I) (?I) (?I) (?I) (?I) (?I) (?I) (?I)
                 (?I) (?I) (?J) (?J) (?J) (?J) (?J) (?J) (?J) (SG)
                 (PHI) (PHI) (DLTA) (DLTA) (PI) (PI) (SG) (SG)
                 (PI) (PI) (SG) (DLTA) (DLTA) (PI) (PI) (SG) (SG)
 Beta  Orbitals:
       Occupied  (SG) (?A) (?A)
       Virtual   (?A) (?A) (?A) (?A) (?A) (?A) (SG) (SG) (?B) (?B)
                 (?B) (?B) (SG) (?C) (?C) (?C) (?C) (?C) (?C) (SG)
                 (?D) (?D) (?D) (?D) (?E) (?E) (?E) (?E) (?E) (?E)
                 (?E) (SG) (SG) (DLTA) (DLTA) (PI) (PI) (SG) (PI)
                 (PI) (?F) (?F) (?F) (?F) (?G) (?G) (?G) (?G) (?G)
                 (?G) (?G) (?G) (?G) (?G) (?G) (?G) (?G) (?G) (?G)
                 (?G) (?G) (?G) (?G) (?G) (?G) (SG) (PHI) (PHI)
                 (DLTA) (DLTA) (PI) (PI) (SG) (SG) (DLTA) (DLTA)
                 (PI) (PI) (PI) (PI) (SG) (SG) (?H) (?H) (?H) (?I)
                 (?I) (?I) (?I) (?I) (?I) (?I) (?I) (?I) (?I) (?I)
                 (?I) (?I) (?J) (?J) (?J) (?J) (?J) (?J) (?J) (SG)
                 (PHI) (PHI) (DLTA) (DLTA) (PI) (PI) (SG) (SG)
                 (PI) (PI) (SG) (DLTA) (DLTA) (PI) (PI) (SG) (SG)
 Unable to determine electronic state:  an orbital has unidentified symmetry.
 Alpha  occ. eigenvalues --   -7.87648  -0.61197  -0.24648
 Alpha virt. eigenvalues --   -0.06909  -0.03705  -0.02837   0.02681   0.04579
 Alpha virt. eigenvalues --    0.04644   0.06611   0.09282   0.12396   0.12396
 Alpha virt. eigenvalues --    0.13073   0.13114   0.16042   0.24339   0.24473
 Alpha virt. eigenvalues --    0.25446   0.26198   0.26306   0.29627   0.34160
 Alpha virt. eigenvalues --    0.42359   0.42359   0.42982   0.42983   0.44229
 Alpha virt. eigenvalues --    0.44230   0.44787   0.44922   0.45049   0.46387
 Alpha virt. eigenvalues --    0.46479   0.48099   0.57156   0.69189   0.69189
 Alpha virt. eigenvalues --    0.75382   0.75406   0.84821   0.87346   0.87352
 Alpha virt. eigenvalues --    0.95412   0.95419   0.96775   0.99292   1.30088
 Alpha virt. eigenvalues --    1.30594   1.30594   1.31204   1.31226   1.31493
 Alpha virt. eigenvalues --    1.31496   1.32110   1.32113   1.32244   1.32373
 Alpha virt. eigenvalues --    1.33225   1.33319   1.33444   1.35984   1.35984
 Alpha virt. eigenvalues --    1.37111   1.37114   1.38802   1.40445   1.40660
 Alpha virt. eigenvalues --    1.51383   1.64152   1.64152   1.65167   1.65167
 Alpha virt. eigenvalues --    1.71223   1.71248   1.72322   1.86718   2.55425
 Alpha virt. eigenvalues --    2.55425   2.59823   2.59828   2.68492   2.68495
 Alpha virt. eigenvalues --    2.70180   2.77041   3.59407   3.59583   3.63467
 Alpha virt. eigenvalues --    3.81498   3.81498   3.82243   3.82243   3.82441
 Alpha virt. eigenvalues --    3.82442   3.83222   3.83239   3.83496   3.83715
 Alpha virt. eigenvalues --    3.84354   3.85215   3.85484   3.95461   3.96534
 Alpha virt. eigenvalues --    3.96534   3.97765   3.97767   4.00204   4.00499
 Alpha virt. eigenvalues --    4.05434   6.64872   6.64872   6.65139   6.65139
 Alpha virt. eigenvalues --    6.66568   6.66570   6.69054   7.55917   8.04222
 Alpha virt. eigenvalues --    8.04223   8.08821   8.48702   8.48702   8.51729
 Alpha virt. eigenvalues --    8.51730   8.60154  12.92244
  Beta  occ. eigenvalues --   -7.87648  -0.61197  -0.24648
  Beta virt. eigenvalues --   -0.06909  -0.03705  -0.02837   0.02681   0.04579
  Beta virt. eigenvalues --    0.04644   0.06611   0.09282   0.12396   0.12396
  Beta virt. eigenvalues --    0.13073   0.13114   0.16042   0.24339   0.24473
  Beta virt. eigenvalues --    0.25446   0.26198   0.26306   0.29627   0.34160
  Beta virt. eigenvalues --    0.42359   0.42359   0.42982   0.42983   0.44229
  Beta virt. eigenvalues --    0.44230   0.44787   0.44922   0.45049   0.46387
  Beta virt. eigenvalues --    0.46479   0.48099   0.57156   0.69189   0.69189
  Beta virt. eigenvalues --    0.75382   0.75406   0.84821   0.87346   0.87352
  Beta virt. eigenvalues --    0.95412   0.95419   0.96775   0.99292   1.30088
  Beta virt. eigenvalues --    1.30594   1.30594   1.31204   1.31226   1.31493
  Beta virt. eigenvalues --    1.31496   1.32110   1.32113   1.32244   1.32373
  Beta virt. eigenvalues --    1.33225   1.33319   1.33444   1.35984   1.35984
  Beta virt. eigenvalues --    1.37111   1.37114   1.38802   1.40445   1.40660
  Beta virt. eigenvalues --    1.51383   1.64152   1.64152   1.65167   1.65167
  Beta virt. eigenvalues --    1.71223   1.71248   1.72322   1.86718   2.55425
  Beta virt. eigenvalues --    2.55425   2.59823   2.59828   2.68492   2.68495
  Beta virt. eigenvalues --    2.70180   2.77041   3.59407   3.59583   3.63467
  Beta virt. eigenvalues --    3.81498   3.81498   3.82243   3.82243   3.82441
  Beta virt. eigenvalues --    3.82442   3.83222   3.83239   3.83496   3.83715
  Beta virt. eigenvalues --    3.84354   3.85215   3.85484   3.95461   3.96534
  Beta virt. eigenvalues --    3.96534   3.97765   3.97767   4.00204   4.00499
  Beta virt. eigenvalues --    4.05434   6.64872   6.64872   6.65139   6.65139
  Beta virt. eigenvalues --    6.66568   6.66570   6.69054   7.55917   8.04222
  Beta virt. eigenvalues --    8.04223   8.08821   8.48702   8.48702   8.51729
  Beta virt. eigenvalues --    8.51730   8.60154  12.92244
          Condensed to atoms (all electrons):
               1          2
     1  B    4.500649   0.139194
     2  H    0.139194   1.220963
          Atomic-Atomic Spin Densities.
               1          2
     1  B    0.000000   0.000000
     2  H    0.000000   0.000000
 Mulliken charges and spin densities:
               1          2
     1  B    0.360157   0.000000
     2  H   -0.360157   0.000000
 Sum of Mulliken charges =  -0.00000   0.00000
 Mulliken charges and spin densities with hydrogens summed into heavy atoms:
               1          2
     1  B   -0.000000   0.000000
 Electronic spatial extent (au):  <R**2>=             75.7505
 Charge=             -0.0000 electrons
 Dipole moment (field-independent basis, Debye):
    X=              0.0000    Y=             -0.0000    Z=              7.2977  Tot=              7.2977
 Quadrupole moment (field-independent basis, Debye-Ang):
   XX=             -9.3400   YY=             -8.9826   ZZ=            -25.7658
   XY=              0.0000   XZ=              0.0000   YZ=             -0.0000
 Traceless Quadrupole moment (field-independent basis, Debye-Ang):
   XX=              5.3561   YY=              5.7135   ZZ=            -11.0696
   XY=              0.0000   XZ=              0.0000   YZ=             -0.0000
 Octapole moment (field-independent basis, Debye-Ang**2):
  XXX=              0.0000  YYY=              0.0000  ZZZ=             64.2462  XYY=              0.0000
  XXY=              0.0000  XXZ=              8.1594  XZZ=              0.0000  YZZ=              0.0000
  YYZ=              8.4069  XYZ=              0.0000
 Hexadecapole moment (field-independent basis, Debye-Ang**3):
 XXXX=            -20.5046 YYYY=            -19.1948 ZZZZ=           -353.8993 XXXY=              0.0000
 XXXZ=              0.0000 YYYX=              0.0000 YYYZ=             -0.0000 ZZZX=              0.0000
 ZZZY=             -0.0000 XXYY=             -6.6169 XXZZ=            -42.7403 YYZZ=            -42.3328
 XXYZ=             -0.0000 YYXZ=              0.0000 ZZXY=              0.0000
 N-N= 6.962858038421D-01 E-N=-5.849964432144D+01  KE= 2.475336507514D+01
 Symmetry A1   KE= 2.468525131250D+01
 Symmetry A2   KE= 2.621476107481D-29
 Symmetry B1   KE= 6.811376264092D-02
 Symmetry B2   KE= 6.106129739125D-29
 Symmetry A1   SP= 0.000000000000D+00
 Symmetry A2   SP= 0.000000000000D+00
 Symmetry B1   SP= 0.000000000000D+00
 Symmetry B2   SP= 0.000000000000D+00
                          Isotropic Fermi Contact Couplings
        Atom                 a.u.       MegaHertz       Gauss      10(-4) cm-1
     1  B(11)              0.00000       0.00000       0.00000       0.00000
     2  H(1)               0.00000       0.00000       0.00000       0.00000
 --------------------------------------------------------
       Center         ----  Spin Dipole Couplings  ----
                      3XX-RR        3YY-RR        3ZZ-RR
 --------------------------------------------------------
     1   Atom        0.000000      0.000000      0.000000
     2   Atom        0.000000      0.000000      0.000000
 --------------------------------------------------------
                        XY            XZ            YZ
 --------------------------------------------------------
     1   Atom        0.000000     -0.154892      0.000000
     2   Atom        0.000000      0.001065      0.000000
 --------------------------------------------------------


 ---------------------------------------------------------------------------------
              Anisotropic Spin Dipole Couplings in Principal Axis System
 ---------------------------------------------------------------------------------

       Atom             a.u.   MegaHertz   Gauss  10(-4) cm-1        Axes

              Baa    -0.1549   -26.520    -9.463    -8.846  0.7071 -0.0000  0.7071
     1 B(11)  Bbb     0.0000     0.000     0.000     0.000  0.0000  1.0000  0.0000
              Bcc     0.1549    26.520     9.463     8.846  0.7071  0.0000 -0.7071
 
              Baa    -0.0011    -0.568    -0.203    -0.190  0.7071 -0.0000 -0.7071
     2 H(1)   Bbb     0.0000     0.000     0.000     0.000 -0.0000  1.0000 -0.0000
              Bcc     0.0011     0.568     0.203     0.190  0.7071  0.0000  0.7071
 

 ---------------------------------------------------------------------------------

 No NMR shielding tensors so no spin-rotation constants.
 Leave Link  601 at Sun May 22 18:35:27 2022, MaxMem=   104857600 cpu:               0.2 elap:               0.2
 (Enter /apps/software/g16/l801.exe)
 Range of M.O.s used for correlation:     1   126
 NBasis=   126 NAE=     3 NBE=     3 NFC=     0 NFV=     0
 NROrb=    126 NOA=     3 NOB=     3 NVA=   123 NVB=   123
 Leave Link  801 at Sun May 22 18:35:27 2022, MaxMem=   104857600 cpu:               0.0 elap:               0.0
 (Enter /apps/software/g16/l914.exe)
 UHF ground state
 Doing stability rather than CIS.
 Keep R1 and R2 ints in memory in symmetry-blocked form, NReq=40144005.
 FoFCou: FMM=F IPFlag=           0 FMFlag=           0 FMFlg1=           0
         NFxFlg=           0 DoJE=F BraDBF=F KetDBF=F FulRan=T
         wScrn=  0.000000 ICntrl=       600 IOpCl=  0 I1Cent=           0 NGrid=           0
         NMat0=    1 NMatS0=   8001 NMatT0=    0 NMatD0=    1 NMtDS0=    0 NMtDT0=    0
 Petite list used in FoFCou.
 MDV=   104857600 DFT=F DoStab=T Mixed=F DoRPA=F DoScal=F NonHer=F
 Making orbital integer symmetry assigments:
 Orbital symmetries:
 Alpha Orbitals:
       Occupied  (SG) (?A) (?A)
       Virtual   (?A) (?A) (?A) (?A) (?A) (?A) (SG) (SG) (?B) (?B)
                 (?B) (?B) (SG) (?C) (?C) (?C) (?C) (?C) (?C) (SG)
                 (?D) (?D) (?D) (?D) (?E) (?E) (?E) (?E) (?E) (?E)
                 (?E) (SG) (SG) (DLTA) (DLTA) (PI) (PI) (SG) (PI)
                 (PI) (?F) (?F) (?F) (?F) (?G) (?G) (?G) (?G) (?G)
                 (?G) (?G) (?G) (?G) (?G) (?G) (?G) (?G) (?G) (?G)
                 (?G) (?G) (?G) (?G) (?G) (?G) (SG) (PHI) (PHI)
                 (DLTA) (DLTA) (PI) (PI) (SG) (SG) (DLTA) (DLTA)
                 (PI) (PI) (PI) (PI) (SG) (SG) (?H) (?H) (?H) (?I)
                 (?I) (?I) (?I) (?I) (?I) (?I) (?I) (?I) (?I) (?I)
                 (?I) (?I) (?J) (?J) (?J) (?J) (?J) (?J) (?J) (SG)
                 (PHI) (PHI) (DLTA) (DLTA) (PI) (PI) (SG) (SG)
                 (PI) (PI) (SG) (DLTA) (DLTA) (PI) (PI) (SG) (SG)
 Beta  Orbitals:
       Occupied  (SG) (?A) (?A)
       Virtual   (?A) (?A) (?A) (?A) (?A) (?A) (SG) (SG) (?B) (?B)
                 (?B) (?B) (SG) (?C) (?C) (?C) (?C) (?C) (?C) (SG)
                 (?D) (?D) (?D) (?D) (?E) (?E) (?E) (?E) (?E) (?E)
                 (?E) (SG) (SG) (DLTA) (DLTA) (PI) (PI) (SG) (PI)
                 (PI) (?F) (?F) (?F) (?F) (?G) (?G) (?G) (?G) (?G)
                 (?G) (?G) (?G) (?G) (?G) (?G) (?G) (?G) (?G) (?G)
                 (?G) (?G) (?G) (?G) (?G) (?G) (SG) (PHI) (PHI)
                 (DLTA) (DLTA) (PI) (PI) (SG) (SG) (DLTA) (DLTA)
                 (PI) (PI) (PI) (PI) (SG) (SG) (?H) (?H) (?H) (?I)
                 (?I) (?I) (?I) (?I) (?I) (?I) (?I) (?I) (?I) (?I)
                 (?I) (?I) (?J) (?J) (?J) (?J) (?J) (?J) (?J) (SG)
                 (PHI) (PHI) (DLTA) (DLTA) (PI) (PI) (SG) (SG)
                 (PI) (PI) (SG) (DLTA) (DLTA) (PI) (PI) (SG) (SG)
    12 initial guesses have been made.
 Convergence on wavefunction:    0.001000000000000
 Davidson Disk Diagonalization:  ConvIn= 1.00D-03 SkipCon=T Conv= 1.00D-03.
 Max sub-space:  1476 roots to seek:    12 dimension of matrix:          738
 Iteration     1 Dimension    12 NMult     0 NNew     12
 CISAX will form    12 AO SS matrices at one time.
 NMat=    12 NSing=    12 JSym2X= 2.
 New state      1 was old state      5
 Excitation Energies [eV] at current iteration:
 Root      1 :    -4.455282075920202
 Root      2 :     0.734531697901737
 Root      3 :     1.161147703232598
 Root      4 :     1.161759430488939
 Root      5 :     1.227737099894356
 Root      6 :     4.496093102454188
 Root      7 :     4.567635060156231
 Root      8 :     5.330516971637067
 Root      9 :     5.380096850953175
 Root     10 :     5.426527097584378
 Root     11 :     5.474848473544442
 Root     12 :     7.994412043967815
 Iteration     2 Dimension    24 NMult    12 NNew     12
 CISAX will form    12 AO SS matrices at one time.
 NMat=    12 NSing=    12 JSym2X= 2.
 Root      1 not converged, maximum delta is    0.115937351553016
 Excitation Energies [eV] at current iteration:
 Root      1 :    -6.172030823340164   Change is   -1.716748747419961
 Root      2 :     0.184879181873750   Change is   -0.549652516027987
 Root      3 :     0.622073393459148   Change is   -0.539686037029791
 Root      4 :     0.717146232502740   Change is   -0.510590867391616
 Root      5 :     0.760057201285484   Change is   -0.401090501947113
 Root      6 :     4.057305341300411   Change is   -0.438787761153777
 Root      7 :     4.174918434784972   Change is   -0.392716625371259
 Root      8 :     4.811242626668489   Change is   -0.519274344968579
 Root      9 :     4.886689528334243   Change is   -0.493407322618933
 Root     10 :     4.962262630153793   Change is   -0.464264467430585
 Root     11 :     4.981889065978127   Change is   -0.492959407566315
 Root     12 :     6.307330981732027   Change is   -1.687081062235788
 Iteration     3 Dimension    27 NMult    24 NNew      3
 CISAX will form     3 AO SS matrices at one time.
 NMat=     3 NSing=     3 JSym2X= 2.
 Root      1 not converged, maximum delta is    0.020215686260049
 Excitation Energies [eV] at current iteration:
 Root      1 :    -6.254268168553870   Change is   -0.082237345213707
 Root      2 :     0.145133783494126   Change is   -0.039745398379624
 Root      3 :     0.597218468087498   Change is   -0.024854925371650
 Iteration     4 Dimension    30 NMult    27 NNew      3
 CISAX will form     3 AO SS matrices at one time.
 NMat=     3 NSing=     3 JSym2X= 2.
 Root      1 not converged, maximum delta is    0.001723308091756
 Excitation Energies [eV] at current iteration:
 Root      1 :    -6.255437214716742   Change is   -0.001169046162872
 Root      2 :     0.022155995857757   Change is   -0.122977787636369
 Root      3 :     0.553662157505008   Change is   -0.043556310582490
 Iteration     5 Dimension    33 NMult    30 NNew      3
 CISAX will form     3 AO SS matrices at one time.
 NMat=     3 NSing=     3 JSym2X= 2.
 Root      1 has converged.
 Excitation Energies [eV] at current iteration:
 Root      1 :    -6.255469141120514   Change is   -0.000031926403773
 Root      2 :     0.001636263644010   Change is   -0.020519732213747
 Root      3 :     0.526126036444559   Change is   -0.027536121060448
 Convergence achieved on expansion vectors.
 ***********************************************************************
 Stability analysis using <AA,BB:AA,BB> singles matrix:
 ***********************************************************************
 1PDM for each excited state written to RWF  633
 Ground to excited state transition densities written to RWF  633

 Eigenvectors of the stability matrix:
 
 Excited state symmetry could not be determined.
 Eigenvector   1:  2.871-?Sym  Eigenvalue=-0.2298843  <S**2>=1.810
      3A ->  4A        0.65165
      3A ->  6A        0.15137
      3A ->  7A       -0.11501
      3B ->  4B       -0.65165
      3B ->  6B        0.15137
      3B ->  7B        0.11501
 The wavefunction has an internal instability.
 Leave Link  914 at Sun May 22 18:35:31 2022, MaxMem=   104857600 cpu:               4.2 elap:               4.2
 (Enter /apps/software/g16/l508.exe)
 Keep R1 and R2 ints in memory in symmetry-blocked form, NReq=40144065.
 FoFCou: FMM=F IPFlag=           0 FMFlag=           0 FMFlg1=           0
         NFxFlg=           0 DoJE=F BraDBF=F KetDBF=F FulRan=T
         wScrn=  0.000000 ICntrl=       600 IOpCl=  0 I1Cent=           0 NGrid=           0
         NMat0=    1 NMatS0=   8001 NMatT0=    0 NMatD0=    1 NMtDS0=    0 NMtDT0=    0
 Petite list used in FoFCou.
 Tight linear equation convergence will be used.
 UHF wavefunction.
 Quadratic Convergence SCF Method.
 Line search only if initial step raises energy.
 Perform preliminary linear searches along instability eigenvector.
     ILin= 1 X=0.000D+00 Y=-2.491177827653D+01 DE= 0.00D+00
     ILin= 2 X=1.000D-01 Y=-2.491405776827D+01 DE=-2.28D-03
     ILin= 3 X=1.414D-01 Y=-2.491629879596D+01 DE=-4.52D-03
     ILin= 4 X=2.000D-01 Y=-2.492066674541D+01 DE=-8.89D-03
     ILin= 5 X=2.828D-01 Y=-2.492895510865D+01 DE=-1.72D-02
     ILin= 6 X=4.000D-01 Y=-2.494381128206D+01 DE=-3.20D-02
     ILin= 7 X=5.657D-01 Y=-2.496717436243D+01 DE=-5.54D-02
     ILin= 8 X=8.000D-01 Y=-2.499240713200D+01 DE=-8.06D-02
     ILin= 9 X=1.131D+00 Y=-2.498297979235D+01 DE=-7.12D-02
     An  expanding polynomial of degree  9 produced  0.9219
 Iteration F X= 9.219D-01 EE=-2.499649694930511D+01
     ILin= 1 X=0.000D+00 Y=-2.491177827653D+01 DE= 0.00D+00
     ILin= 2 X=1.000D-01 Y=-2.491405776857D+01 DE=-2.28D-03
     ILin= 3 X=1.414D-01 Y=-2.491629879682D+01 DE=-4.52D-03
 The two search directions are symmetric.
 Iteration B X= 9.219D-01 EE=-2.499649694930511D+01
 Take forward step, X= 9.219D-01 Step= 9.219D-01
 Iteration   1 EE= -24.9964940407398                                    Grad=1.053D-01 Max rot=    2.3898 deg.
 Gradient too large for Newton-Raphson -- use scaled steepest descent instead.
 Alpha Gap=     0.300 HL deriv= 1.39D-01
  Beta Gap=     0.495 HL deriv= 7.33D-02
     ILin= 1 X=0.000D+00 Y=-2.499649404074D+01 DE= 0.00D+00 F= -3.61D-02
     ILin= 2 X=3.000D-01 Y=-2.500650573339D+01 DE=-1.00D-02 F= -3.06D-02
     ILin= 3 X=4.000D-01 Y=-2.500946512436D+01 DE=-1.30D-02 F= -2.86D-02
     ILin= 4 X=7.000D-01 Y=-2.501710927040D+01 DE=-2.06D-02 F= -2.23D-02
     ILin= 5 X=1.000D+00 Y=-2.502276672196D+01 DE=-2.63D-02 F= -1.54D-02
     ILin= 6 X=1.500D+00 Y=-2.502738352438D+01 DE=-3.09D-02 F= -2.93D-03
     ILin= 7 X=2.300D+00 Y=-2.502129682475D+01 DE=-2.48D-02 F=  1.83D-02
     An  expanding polynomial of degree  7 produced  1.6128
     Minimum is close to point  6 DX=  1.13D-01 DF= -1.65D-04 DXR=  6.99D-02 DFR=  5.36D-03 which will be used.
 Iteration   2 EE= -25.0273835243804     Delta-E=       -0.030889483641 Grad=4.379D-02 Max rot=    0.9785 deg.
 Gradient too large for Newton-Raphson -- use scaled steepest descent instead.
 Alpha Gap=     0.356 HL deriv= 4.80D-02
  Beta Gap=     0.558 HL deriv= 2.21D-02
     ILin= 1 X=0.000D+00 Y=-2.502738352438D+01 DE= 0.00D+00 F= -5.56D-03
     ILin= 2 X=7.000D-01 Y=-2.503043365073D+01 DE=-3.05D-03 F= -3.14D-03
     ILin= 3 X=1.200D+00 Y=-2.503155198423D+01 DE=-4.17D-03 F= -1.33D-03
     ILin= 4 X=2.200D+00 Y=-2.503101115184D+01 DE=-3.63D-03 F=  2.44D-03
     An  expanding polynomial of degree  4 produced  1.5589
 Iteration   3 EE= -25.0317904679926     Delta-E=       -0.004406943612 Grad=2.191D-02 Max rot=    0.4425 deg.
 Gradient too large for Newton-Raphson -- use scaled steepest descent instead.
 Alpha Gap=     0.369 HL deriv= 1.01D-02
  Beta Gap=     0.574 HL deriv= 8.27D-03
     ILin= 1 X=0.000D+00 Y=-2.503179046799D+01 DE= 0.00D+00 F= -1.10D-03
     ILin= 2 X=1.600D+00 Y=-2.503249484561D+01 DE=-7.04D-04 F=  2.20D-04
     Accept linear search using points  1 and  2.
     An  expanding polynomial of degree  2 produced  1.4864
     Minimum is close to point  2 DX= -1.14D-01 DF= -7.66D-06 DXR=  7.64D-02 DFR=  1.09D-02 which will be used.
 Iteration   4 EE= -25.0324948456118     Delta-E=       -0.000704377619 Grad=1.239D-02 Max rot=    0.2935 deg.
 Gradient too large for Newton-Raphson -- use scaled steepest descent instead.
 Alpha Gap=     0.373 HL deriv= 5.09D-03
  Beta Gap=     0.578 HL deriv= 5.51D-03
     ILin= 1 X=0.000D+00 Y=-2.503249484561D+01 DE= 0.00D+00 F= -3.34D-04
     ILin= 2 X=1.500D+00 Y=-2.503268870972D+01 DE=-1.94D-04 F=  7.56D-05
     Accept linear search using points  1 and  2.
     An  expanding polynomial of degree  2 produced  1.3603
 Iteration   5 EE= -25.0326965976791     Delta-E=       -0.000201752067 Grad=5.795D-03 Max rot=    0.1209 deg.
 QCNR:  CnvC1=2.72D-09 CnvC2=2.72D-08
 LinEq1:  Iter=  0 NonCon=     1 RMS=2.70D-04 Max=2.73D-03 NDo=     1
 AX will form     1 AO Fock derivatives at one time.
 LinEq1:  Iter=  1 NonCon=     1 RMS=9.35D-05 Max=1.14D-03 NDo=     1
 LinEq1:  Iter=  2 NonCon=     1 RMS=1.58D-05 Max=1.79D-04 NDo=     1
 LinEq1:  Iter=  3 NonCon=     1 RMS=2.34D-06 Max=2.82D-05 NDo=     1
 LinEq1:  Iter=  4 NonCon=     1 RMS=3.79D-07 Max=5.32D-06 NDo=     1
 LinEq1:  Iter=  5 NonCon=     1 RMS=9.07D-08 Max=7.06D-07 NDo=     1
 LinEq1:  Iter=  6 NonCon=     1 RMS=2.55D-08 Max=3.37D-07 NDo=     1
 LinEq1:  Iter=  7 NonCon=     1 RMS=6.89D-09 Max=5.44D-08 NDo=     1
 LinEq1:  Iter=  8 NonCon=     0 RMS=1.06D-09 Max=9.43D-09 NDo=     1
 Linear equations converged to 2.717D-09 2.717D-08 after     8 iterations.
 Angle between quadratic step and gradient=  54.43 degrees.
     ILin= 1 X=0.000D+00 Y=-2.503269659768D+01 DE= 0.00D+00 F= -6.42D-04
     ILin= 2 X=1.000D+00 Y=-2.503303169154D+01 DE=-3.35D-04 F= -3.96D-05
     Reject lnstep minimum 1.070D+00 FVal=-2.503303308033D+01 Lims=  0.00D+00  1.00D+00
     ILin= 3 X=1.800D+00 Y=-2.503287224531D+01 DE=-1.76D-04 F=  4.48D-04
     An  expanding polynomial of degree  3 produced  1.0643
     Minimum is close to point  2 DX=  6.43D-02 DF= -1.23D-06 DXR=  6.05D-02 DFR=  3.67D-03 which will be used.
 Iteration   6 EE= -25.0330316915409     Delta-E=       -0.000335093862 Grad=4.316D-03 Max rot=    0.1487 deg.
 QCNR:  CnvC1=2.72D-09 CnvC2=2.72D-08
 LinEq1:  Iter=  0 NonCon=     1 RMS=6.46D-05 Max=5.36D-04 NDo=     1
 LinEq1:  Iter=  1 NonCon=     1 RMS=1.76D-05 Max=1.53D-04 NDo=     1
 LinEq1:  Iter=  2 NonCon=     1 RMS=4.96D-06 Max=4.12D-05 NDo=     1
 LinEq1:  Iter=  3 NonCon=     1 RMS=1.25D-06 Max=1.23D-05 NDo=     1
 LinEq1:  Iter=  4 NonCon=     1 RMS=2.67D-07 Max=2.33D-06 NDo=     1
 LinEq1:  Iter=  5 NonCon=     1 RMS=5.83D-08 Max=6.69D-07 NDo=     1
 LinEq1:  Iter=  6 NonCon=     1 RMS=1.89D-08 Max=1.86D-07 NDo=     1
 LinEq1:  Iter=  7 NonCon=     1 RMS=4.36D-09 Max=4.77D-08 NDo=     1
 LinEq1:  Iter=  8 NonCon=     0 RMS=7.02D-10 Max=5.07D-09 NDo=     1
 Linear equations converged to 2.717D-09 2.717D-08 after     8 iterations.
 Angle between quadratic step and gradient=  87.09 degrees.
     ILin= 1 X=0.000D+00 Y=-2.503303169154D+01 DE= 0.00D+00 F= -2.40D-05
     ILin= 2 X=1.000D+00 Y=-2.503304040205D+01 DE=-8.71D-06 F=  6.38D-06
     Accept linear search using points  1 and  2.
     An  expanding polynomial of degree  2 produced  0.7869
 Iteration   7 EE= -25.0330410790691     Delta-E=       -0.000009387528 Grad=4.954D-03 Max rot=    0.1914 deg.
 QCNR:  CnvC1=2.72D-09 CnvC2=2.72D-08
 LinEq1:  Iter=  0 NonCon=     1 RMS=5.48D-05 Max=4.25D-04 NDo=     1
 LinEq1:  Iter=  1 NonCon=     1 RMS=1.23D-05 Max=1.18D-04 NDo=     1
 LinEq1:  Iter=  2 NonCon=     1 RMS=3.25D-06 Max=3.95D-05 NDo=     1
 LinEq1:  Iter=  3 NonCon=     1 RMS=9.82D-07 Max=9.83D-06 NDo=     1
 LinEq1:  Iter=  4 NonCon=     1 RMS=2.41D-07 Max=2.38D-06 NDo=     1
 LinEq1:  Iter=  5 NonCon=     1 RMS=3.88D-08 Max=2.74D-07 NDo=     1
 LinEq1:  Iter=  6 NonCon=     1 RMS=7.89D-09 Max=9.10D-08 NDo=     1
 LinEq1:  Iter=  7 NonCon=     0 RMS=2.40D-09 Max=2.13D-08 NDo=     1
 Linear equations converged to 2.717D-09 2.717D-08 after     7 iterations.
 Angle between quadratic step and gradient=  88.27 degrees.
     ILin= 1 X=0.000D+00 Y=-2.503304107907D+01 DE= 0.00D+00 F= -2.08D-05
     ILin= 2 X=1.000D+00 Y=-2.503304844972D+01 DE=-7.37D-06 F=  6.68D-06
     Accept linear search using points  1 and  2.
     An  expanding polynomial of degree  2 produced  0.7694
 Iteration   8 EE= -25.0330492050760     Delta-E=       -0.000008126007 Grad=1.595D-03 Max rot=    0.0296 deg.
 QCNR:  CnvC1=2.72D-09 CnvC2=2.72D-08
 LinEq1:  Iter=  0 NonCon=     1 RMS=3.28D-05 Max=2.41D-04 NDo=     1
 LinEq1:  Iter=  1 NonCon=     1 RMS=1.15D-05 Max=9.79D-05 NDo=     1
 LinEq1:  Iter=  2 NonCon=     1 RMS=2.93D-06 Max=2.39D-05 NDo=     1
 LinEq1:  Iter=  3 NonCon=     1 RMS=6.04D-07 Max=7.41D-06 NDo=     1
 LinEq1:  Iter=  4 NonCon=     1 RMS=1.01D-07 Max=9.65D-07 NDo=     1
 LinEq1:  Iter=  5 NonCon=     1 RMS=3.17D-08 Max=3.69D-07 NDo=     1
 LinEq1:  Iter=  6 NonCon=     1 RMS=9.28D-09 Max=9.83D-08 NDo=     1
 LinEq1:  Iter=  7 NonCon=     0 RMS=1.47D-09 Max=1.10D-08 NDo=     1
 Linear equations converged to 2.717D-09 2.717D-08 after     7 iterations.
 Angle between quadratic step and gradient=  82.44 degrees.
     ILin= 1 X=0.000D+00 Y=-2.503304920508D+01 DE= 0.00D+00 F= -1.05D-05
     ILin= 2 X=1.000D+00 Y=-2.503305264543D+01 DE=-3.44D-06 F=  3.68D-06
     Accept linear search using points  1 and  2.
     An  expanding polynomial of degree  2 produced  0.7431
 Iteration   9 EE= -25.0330531176228     Delta-E=       -0.000003912547 Grad=1.939D-03 Max rot=    0.0596 deg.
 QCNR:  CnvC1=2.72D-09 CnvC2=2.72D-08
 LinEq1:  Iter=  0 NonCon=     1 RMS=3.06D-05 Max=2.45D-04 NDo=     1
 LinEq1:  Iter=  1 NonCon=     1 RMS=7.27D-06 Max=7.15D-05 NDo=     1
 LinEq1:  Iter=  2 NonCon=     1 RMS=1.98D-06 Max=2.41D-05 NDo=     1
 LinEq1:  Iter=  3 NonCon=     1 RMS=5.53D-07 Max=5.15D-06 NDo=     1
 LinEq1:  Iter=  4 NonCon=     1 RMS=1.12D-07 Max=1.27D-06 NDo=     1
 LinEq1:  Iter=  5 NonCon=     1 RMS=2.69D-08 Max=2.86D-07 NDo=     1
 LinEq1:  Iter=  6 NonCon=     1 RMS=5.14D-09 Max=4.80D-08 NDo=     1
 LinEq1:  Iter=  7 NonCon=     0 RMS=1.71D-09 Max=1.77D-08 NDo=     1
 Linear equations converged to 2.717D-09 2.717D-08 after     7 iterations.
 Angle between quadratic step and gradient=  87.58 degrees.
     ILin= 1 X=0.000D+00 Y=-2.503305311762D+01 DE= 0.00D+00 F= -9.11D-06
     ILin= 2 X=1.000D+00 Y=-2.503305604645D+01 DE=-2.93D-06 F=  3.49D-06
     Accept linear search using points  1 and  2.
     An  expanding polynomial of degree  2 produced  0.7340
 Iteration  10 EE= -25.0330565037450     Delta-E=       -0.000003386122 Grad=1.280D-03 Max rot=    0.0271 deg.
 QCNR:  CnvC1=2.72D-09 CnvC2=2.72D-08
 LinEq1:  Iter=  0 NonCon=     1 RMS=2.15D-05 Max=1.83D-04 NDo=     1
 LinEq1:  Iter=  1 NonCon=     1 RMS=7.69D-06 Max=7.57D-05 NDo=     1
 LinEq1:  Iter=  2 NonCon=     1 RMS=1.90D-06 Max=1.22D-05 NDo=     1
 LinEq1:  Iter=  3 NonCon=     1 RMS=3.12D-07 Max=3.87D-06 NDo=     1
 LinEq1:  Iter=  4 NonCon=     1 RMS=7.00D-08 Max=6.16D-07 NDo=     1
 LinEq1:  Iter=  5 NonCon=     1 RMS=2.19D-08 Max=2.79D-07 NDo=     1
 LinEq1:  Iter=  6 NonCon=     1 RMS=5.25D-09 Max=3.00D-08 NDo=     1
 LinEq1:  Iter=  7 NonCon=     0 RMS=7.68D-10 Max=6.50D-09 NDo=     1
 Linear equations converged to 2.717D-09 2.717D-08 after     7 iterations.
 Angle between quadratic step and gradient=  85.38 degrees.
     ILin= 1 X=0.000D+00 Y=-2.503305650375D+01 DE= 0.00D+00 F= -6.50D-06
     ILin= 2 X=1.000D+00 Y=-2.503305894148D+01 DE=-2.44D-06 F=  1.64D-06
     Accept linear search using points  1 and  2.
     An  expanding polynomial of degree  2 produced  0.7995
 Iteration  11 EE= -25.0330591054810     Delta-E=       -0.000002601736 Grad=2.035D-03 Max rot=    0.0565 deg.
 QCNR:  CnvC1=2.72D-09 CnvC2=2.72D-08
 LinEq1:  Iter=  0 NonCon=     1 RMS=2.85D-05 Max=2.37D-04 NDo=     1
 LinEq1:  Iter=  1 NonCon=     1 RMS=6.22D-06 Max=5.26D-05 NDo=     1
 LinEq1:  Iter=  2 NonCon=     1 RMS=1.59D-06 Max=2.20D-05 NDo=     1
 LinEq1:  Iter=  3 NonCon=     1 RMS=4.56D-07 Max=3.63D-06 NDo=     1
 LinEq1:  Iter=  4 NonCon=     1 RMS=1.01D-07 Max=1.16D-06 NDo=     1
 LinEq1:  Iter=  5 NonCon=     1 RMS=2.30D-08 Max=1.51D-07 NDo=     1
 LinEq1:  Iter=  6 NonCon=     1 RMS=4.95D-09 Max=4.64D-08 NDo=     1
 LinEq1:  Iter=  7 NonCon=     0 RMS=1.70D-09 Max=1.49D-08 NDo=     1
 Linear equations converged to 2.717D-09 2.717D-08 after     7 iterations.
 Angle between quadratic step and gradient=  87.13 degrees.
     ILin= 1 X=0.000D+00 Y=-2.503305910548D+01 DE= 0.00D+00 F= -4.23D-06
     ILin= 2 X=1.000D+00 Y=-2.503306082346D+01 DE=-1.72D-06 F=  7.73D-07
     Accept linear search using points  1 and  2.
     An  expanding polynomial of degree  2 produced  0.8436
 Iteration  12 EE= -25.0330608838871     Delta-E=       -0.000001778406 Grad=9.588D-04 Max rot=    0.0266 deg.
 QCNR:  CnvC1=2.72D-09 CnvC2=2.72D-08
 LinEq1:  Iter=  0 NonCon=     1 RMS=1.28D-05 Max=9.42D-05 NDo=     1
 LinEq1:  Iter=  1 NonCon=     1 RMS=4.57D-06 Max=3.75D-05 NDo=     1
 LinEq1:  Iter=  2 NonCon=     1 RMS=1.18D-06 Max=1.04D-05 NDo=     1
 LinEq1:  Iter=  3 NonCon=     1 RMS=2.45D-07 Max=3.03D-06 NDo=     1
 LinEq1:  Iter=  4 NonCon=     1 RMS=4.31D-08 Max=3.83D-07 NDo=     1
 LinEq1:  Iter=  5 NonCon=     1 RMS=1.57D-08 Max=1.66D-07 NDo=     1
 LinEq1:  Iter=  6 NonCon=     1 RMS=3.39D-09 Max=2.54D-08 NDo=     1
 LinEq1:  Iter=  7 NonCon=     0 RMS=6.11D-10 Max=4.92D-09 NDo=     1
 Linear equations converged to 2.717D-09 2.717D-08 after     7 iterations.
 Angle between quadratic step and gradient=  86.16 degrees.
     ILin= 1 X=0.000D+00 Y=-2.503306088389D+01 DE= 0.00D+00 F= -3.31D-06
     ILin= 2 X=1.000D+00 Y=-2.503306147201D+01 DE=-5.88D-07 F=  2.15D-06
     Accept linear search using points  1 and  2.
     An  expanding polynomial of degree  2 produced  0.6085
 Iteration  13 EE= -25.0330618923284     Delta-E=       -0.000001008441 Grad=1.511D-03 Max rot=    0.0457 deg.
 QCNR:  CnvC1=2.72D-09 CnvC2=2.72D-08
 LinEq1:  Iter=  0 NonCon=     1 RMS=1.94D-05 Max=1.68D-04 NDo=     1
 LinEq1:  Iter=  1 NonCon=     1 RMS=4.38D-06 Max=4.18D-05 NDo=     1
 LinEq1:  Iter=  2 NonCon=     1 RMS=1.16D-06 Max=1.45D-05 NDo=     1
 LinEq1:  Iter=  3 NonCon=     1 RMS=3.38D-07 Max=2.79D-06 NDo=     1
 LinEq1:  Iter=  4 NonCon=     1 RMS=7.27D-08 Max=9.40D-07 NDo=     1
 LinEq1:  Iter=  5 NonCon=     1 RMS=1.59D-08 Max=1.66D-07 NDo=     1
 LinEq1:  Iter=  6 NonCon=     1 RMS=3.45D-09 Max=3.07D-08 NDo=     1
 LinEq1:  Iter=  7 NonCon=     0 RMS=1.23D-09 Max=1.18D-08 NDo=     1
 Linear equations converged to 2.717D-09 2.717D-08 after     7 iterations.
 Angle between quadratic step and gradient=  87.53 degrees.
     ILin= 1 X=0.000D+00 Y=-2.503306189233D+01 DE= 0.00D+00 F= -2.55D-06
     ILin= 2 X=1.000D+00 Y=-2.503306282331D+01 DE=-9.31D-07 F=  6.86D-07
     Accept linear search using points  1 and  2.
     An  expanding polynomial of degree  2 produced  0.7874
 Iteration  14 EE= -25.0330628961556     Delta-E=       -0.000001003827 Grad=8.920D-04 Max rot=    0.0251 deg.
 QCNR:  CnvC1=2.72D-09 CnvC2=2.72D-08
 LinEq1:  Iter=  0 NonCon=     1 RMS=1.02D-05 Max=8.25D-05 NDo=     1
 LinEq1:  Iter=  1 NonCon=     1 RMS=3.85D-06 Max=3.51D-05 NDo=     1
 LinEq1:  Iter=  2 NonCon=     1 RMS=9.73D-07 Max=7.38D-06 NDo=     1
 LinEq1:  Iter=  3 NonCon=     1 RMS=1.86D-07 Max=2.28D-06 NDo=     1
 LinEq1:  Iter=  4 NonCon=     1 RMS=2.97D-08 Max=3.05D-07 NDo=     1
 LinEq1:  Iter=  5 NonCon=     1 RMS=1.24D-08 Max=1.49D-07 NDo=     1
 LinEq1:  Iter=  6 NonCon=     0 RMS=1.58D-09 Max=1.42D-08 NDo=     1
 Linear equations converged to 2.717D-09 2.717D-08 after     6 iterations.
 Angle between quadratic step and gradient=  84.44 degrees.
     ILin= 1 X=0.000D+00 Y=-2.503306289616D+01 DE= 0.00D+00 F= -1.09D-06
     ILin= 2 X=1.000D+00 Y=-2.503306342291D+01 DE=-5.27D-07 F=  3.72D-08
     Accept linear search using points  1 and  2.
     An  expanding polynomial of degree  2 produced  0.9670
     Minimum is close to point  2 DX= -3.30D-02 DF= -6.15D-10 DXR=  3.42D-02 DFR=  1.17D-03 which will be used.
 Iteration  15 EE= -25.0330634229142     Delta-E=       -0.000000526759 Grad=9.726D-04 Max rot=    0.0315 deg.
 QCNR:  CnvC1=2.72D-09 CnvC2=2.72D-08
 LinEq1:  Iter=  0 NonCon=     1 RMS=9.83D-06 Max=8.78D-05 NDo=     1
 LinEq1:  Iter=  1 NonCon=     1 RMS=2.26D-06 Max=2.55D-05 NDo=     1
 LinEq1:  Iter=  2 NonCon=     1 RMS=7.82D-07 Max=1.19D-05 NDo=     1
 LinEq1:  Iter=  3 NonCon=     1 RMS=2.02D-07 Max=1.62D-06 NDo=     1
 LinEq1:  Iter=  4 NonCon=     1 RMS=3.45D-08 Max=3.09D-07 NDo=     1
 LinEq1:  Iter=  5 NonCon=     1 RMS=8.32D-09 Max=6.80D-08 NDo=     1
 LinEq1:  Iter=  6 NonCon=     0 RMS=1.85D-09 Max=1.84D-08 NDo=     1
 Linear equations converged to 2.717D-09 2.717D-08 after     6 iterations.
 Angle between quadratic step and gradient=  88.24 degrees.
     ILin= 1 X=0.000D+00 Y=-2.503306342291D+01 DE= 0.00D+00 F= -1.82D-06
     ILin= 2 X=1.000D+00 Y=-2.503306340694D+01 DE= 1.60D-08 F=  1.90D-06
     Reject lnstep minimum 4.986D-01 FVal=-2.503306388025D+01 Lims=  0.00D+00  1.00D+00
     ILin= 3 X=5.000D-01 Y=-2.503306387942D+01 DE=-4.57D-07 F=  5.25D-09
     A contracting polynomial of degree  3 produced  0.4957
     Minimum is close to point  3 DX= -4.30D-03 DF= -3.44D-11 DXR=  8.67D-03 DFR=  7.53D-05 which will be used.
 Iteration  16 EE= -25.0330638794218     Delta-E=       -0.000000456508 Grad=1.237D-03 Max rot=    0.0409 deg.
 QCNR:  CnvC1=2.72D-09 CnvC2=2.72D-08
 LinEq1:  Iter=  0 NonCon=     1 RMS=9.85D-06 Max=7.80D-05 NDo=     1
 LinEq1:  Iter=  1 NonCon=     1 RMS=3.53D-06 Max=3.43D-05 NDo=     1
 LinEq1:  Iter=  2 NonCon=     1 RMS=8.94D-07 Max=8.54D-06 NDo=     1
 LinEq1:  Iter=  3 NonCon=     1 RMS=2.13D-07 Max=2.12D-06 NDo=     1
 LinEq1:  Iter=  4 NonCon=     1 RMS=3.94D-08 Max=4.05D-07 NDo=     1
 LinEq1:  Iter=  5 NonCon=     1 RMS=1.24D-08 Max=1.40D-07 NDo=     1
 LinEq1:  Iter=  6 NonCon=     1 RMS=3.43D-09 Max=2.98D-08 NDo=     1
 LinEq1:  Iter=  7 NonCon=     0 RMS=7.11D-10 Max=5.55D-09 NDo=     1
 Linear equations converged to 2.717D-09 2.717D-08 after     7 iterations.
 Angle between quadratic step and gradient=  86.11 degrees.
     ILin= 1 X=0.000D+00 Y=-2.503306387942D+01 DE= 0.00D+00 F= -1.37D-06
     ILin= 2 X=1.000D+00 Y=-2.503306405620D+01 DE=-1.77D-07 F=  1.02D-06
     Accept linear search using points  1 and  2.
     An  expanding polynomial of degree  2 produced  0.5737
 Iteration  17 EE= -25.0330642734228     Delta-E=       -0.000000394001 Grad=8.836D-04 Max rot=    0.0216 deg.
 QCNR:  CnvC1=2.72D-09 CnvC2=2.72D-08
 LinEq1:  Iter=  0 NonCon=     1 RMS=9.96D-06 Max=7.45D-05 NDo=     1
 LinEq1:  Iter=  1 NonCon=     1 RMS=2.93D-06 Max=3.52D-05 NDo=     1
 LinEq1:  Iter=  2 NonCon=     1 RMS=7.44D-07 Max=8.97D-06 NDo=     1
 LinEq1:  Iter=  3 NonCon=     1 RMS=2.07D-07 Max=1.58D-06 NDo=     1
 LinEq1:  Iter=  4 NonCon=     1 RMS=3.45D-08 Max=2.63D-07 NDo=     1
 LinEq1:  Iter=  5 NonCon=     1 RMS=7.12D-09 Max=6.24D-08 NDo=     1
 LinEq1:  Iter=  6 NonCon=     0 RMS=2.42D-09 Max=2.52D-08 NDo=     1
 Linear equations converged to 2.717D-09 2.717D-08 after     6 iterations.
 Angle between quadratic step and gradient=  86.73 degrees.
     ILin= 1 X=0.000D+00 Y=-2.503306427342D+01 DE= 0.00D+00 F= -6.10D-07
     ILin= 2 X=1.000D+00 Y=-2.503306444578D+01 DE=-1.72D-07 F=  2.65D-07
     Accept linear search using points  1 and  2.
     An  expanding polynomial of degree  2 produced  0.6969
 Iteration  18 EE= -25.0330644858854     Delta-E=       -0.000000212463 Grad=1.158D-03 Max rot=    0.0460 deg.
 QCNR:  CnvC1=2.72D-09 CnvC2=2.72D-08
 LinEq1:  Iter=  0 NonCon=     1 RMS=5.18D-06 Max=4.94D-05 NDo=     1
 LinEq1:  Iter=  1 NonCon=     1 RMS=1.98D-06 Max=2.02D-05 NDo=     1
 LinEq1:  Iter=  2 NonCon=     1 RMS=4.99D-07 Max=4.55D-06 NDo=     1
 LinEq1:  Iter=  3 NonCon=     1 RMS=1.27D-07 Max=1.40D-06 NDo=     1
 LinEq1:  Iter=  4 NonCon=     1 RMS=1.73D-08 Max=1.50D-07 NDo=     1
 LinEq1:  Iter=  5 NonCon=     1 RMS=5.89D-09 Max=5.37D-08 NDo=     1
 LinEq1:  Iter=  6 NonCon=     0 RMS=1.42D-09 Max=1.42D-08 NDo=     1
 Linear equations converged to 2.717D-09 2.717D-08 after     6 iterations.
 Angle between quadratic step and gradient=  88.54 degrees.
     ILin= 1 X=0.000D+00 Y=-2.503306448589D+01 DE= 0.00D+00 F= -7.18D-07
     ILin= 2 X=1.000D+00 Y=-2.503306387808D+01 DE= 6.08D-07 F=  1.93D-06
     Reject lnstep minimum 2.708D-01 FVal=-2.503306458305D+01 Lims=  0.00D+00  1.00D+00
     ILin= 3 X=3.000D-01 Y=-2.503306458190D+01 DE=-9.60D-08 F=  7.75D-08
     A contracting polynomial of degree  3 produced  0.2707
 Iteration  19 EE= -25.0330645830298     Delta-E=       -0.000000097144 Grad=1.337D-03 Max rot=    0.0527 deg.
 QCNR:  CnvC1=2.72D-09 CnvC2=2.72D-08
 LinEq1:  Iter=  0 NonCon=     1 RMS=7.01D-06 Max=8.17D-05 NDo=     1
 LinEq1:  Iter=  1 NonCon=     1 RMS=1.95D-06 Max=2.50D-05 NDo=     1
 LinEq1:  Iter=  2 NonCon=     1 RMS=5.83D-07 Max=8.12D-06 NDo=     1
 LinEq1:  Iter=  3 NonCon=     1 RMS=1.50D-07 Max=1.21D-06 NDo=     1
 LinEq1:  Iter=  4 NonCon=     1 RMS=3.07D-08 Max=3.40D-07 NDo=     1
 LinEq1:  Iter=  5 NonCon=     1 RMS=4.58D-09 Max=3.76D-08 NDo=     1
 LinEq1:  Iter=  6 NonCon=     0 RMS=9.55D-10 Max=8.57D-09 NDo=     1
 Linear equations converged to 2.717D-09 2.717D-08 after     6 iterations.
 Angle between quadratic step and gradient=  89.09 degrees.
     ILin= 1 X=0.000D+00 Y=-2.503306458303D+01 DE= 0.00D+00 F= -1.97D-06
     ILin= 2 X=1.000D+00 Y=-2.503306564788D+01 DE=-1.06D-06 F= -9.52D-08
     Reject lnstep minimum 1.046D+00 FVal=-2.503306565006D+01 Lims=  0.00D+00  1.00D+00
     ILin= 3 X=1.900D+00 Y=-2.503306469666D+01 DE=-1.14D-07 F=  2.42D-06
     An  expanding polynomial of degree  3 produced  0.9768
     Minimum is close to point  2 DX= -2.32D-02 DF= -6.02D-10 DXR=  2.38D-02 DFR=  5.66D-04 which will be used.
 Iteration  20 EE= -25.0330656478788     Delta-E=       -0.000001064849 Grad=9.373D-04 Max rot=    0.0335 deg.
 QCNR:  CnvC1=2.72D-09 CnvC2=2.72D-08
 LinEq1:  Iter=  0 NonCon=     1 RMS=1.08D-05 Max=9.18D-05 NDo=     1
 LinEq1:  Iter=  1 NonCon=     1 RMS=2.74D-06 Max=2.89D-05 NDo=     1
 LinEq1:  Iter=  2 NonCon=     1 RMS=8.98D-07 Max=7.08D-06 NDo=     1
 LinEq1:  Iter=  3 NonCon=     1 RMS=1.70D-07 Max=1.49D-06 NDo=     1
 LinEq1:  Iter=  4 NonCon=     1 RMS=2.56D-08 Max=2.08D-07 NDo=     1
 LinEq1:  Iter=  5 NonCon=     1 RMS=6.77D-09 Max=1.01D-07 NDo=     1
 LinEq1:  Iter=  6 NonCon=     0 RMS=2.15D-09 Max=2.13D-08 NDo=     1
 Linear equations converged to 2.717D-09 2.717D-08 after     6 iterations.
 Angle between quadratic step and gradient=  82.45 degrees.
     ILin= 1 X=0.000D+00 Y=-2.503306564788D+01 DE= 0.00D+00 F= -6.13D-07
     ILin= 2 X=1.000D+00 Y=-2.503306595073D+01 DE=-3.03D-07 F=  6.85D-09
     Accept linear search using points  1 and  2.
     An  expanding polynomial of degree  2 produced  0.9889
     Minimum is close to point  2 DX= -1.11D-02 DF= -3.78D-11 DXR=  1.12D-02 DFR=  1.25D-04 which will be used.
 Iteration  21 EE= -25.0330659507270     Delta-E=       -0.000000302848 Grad=4.181D-04 Max rot=    0.0167 deg.
 QCNR:  CnvC1=2.72D-09 CnvC2=2.72D-08
 LinEq1:  Iter=  0 NonCon=     1 RMS=1.87D-06 Max=1.86D-05 NDo=     1
 LinEq1:  Iter=  1 NonCon=     1 RMS=6.18D-07 Max=9.72D-06 NDo=     1
 LinEq1:  Iter=  2 NonCon=     1 RMS=1.69D-07 Max=1.58D-06 NDo=     1
 LinEq1:  Iter=  3 NonCon=     1 RMS=2.64D-08 Max=2.85D-07 NDo=     1
 LinEq1:  Iter=  4 NonCon=     1 RMS=5.17D-09 Max=4.20D-08 NDo=     1
 LinEq1:  Iter=  5 NonCon=     0 RMS=1.57D-09 Max=1.61D-08 NDo=     1
 Linear equations converged to 2.717D-09 2.717D-08 after     5 iterations.
 Angle between quadratic step and gradient=  88.60 degrees.
     ILin= 1 X=0.000D+00 Y=-2.503306595073D+01 DE= 0.00D+00 F= -1.83D-07
     ILin= 2 X=1.000D+00 Y=-2.503306596290D+01 DE=-1.22D-08 F=  1.58D-07
     Accept linear search using points  1 and  2.
     An  expanding polynomial of degree  2 produced  0.5354
 Iteration  22 EE= -25.0330659996894     Delta-E=       -0.000000048962 Grad=2.631D-04 Max rot=    0.0077 deg.
 QCNR:  CnvC1=2.63D-09 CnvC2=2.63D-08
 LinEq1:  Iter=  0 NonCon=     1 RMS=2.45D-06 Max=2.25D-05 NDo=     1
 LinEq1:  Iter=  1 NonCon=     1 RMS=1.01D-06 Max=9.53D-06 NDo=     1
 LinEq1:  Iter=  2 NonCon=     1 RMS=1.88D-07 Max=1.70D-06 NDo=     1
 LinEq1:  Iter=  3 NonCon=     1 RMS=2.61D-08 Max=2.77D-07 NDo=     1
 LinEq1:  Iter=  4 NonCon=     1 RMS=7.43D-09 Max=1.03D-07 NDo=     1
 LinEq1:  Iter=  5 NonCon=     0 RMS=2.19D-09 Max=2.27D-08 NDo=     1
 Linear equations converged to 2.631D-09 2.631D-08 after     5 iterations.
 Angle between quadratic step and gradient=  82.82 degrees.
     ILin= 1 X=0.000D+00 Y=-2.503306599969D+01 DE= 0.00D+00 F= -7.33D-08
     ILin= 2 X=1.000D+00 Y=-2.503306602930D+01 DE=-2.96D-08 F=  1.41D-08
     Accept linear search using points  1 and  2.
     An  expanding polynomial of degree  2 produced  0.8388
 Iteration  23 EE= -25.0330660304330     Delta-E=       -0.000000030744 Grad=2.170D-04 Max rot=    0.0089 deg.
 QCNR:  CnvC1=2.17D-09 CnvC2=2.17D-08
 LinEq1:  Iter=  0 NonCon=     1 RMS=1.08D-06 Max=1.05D-05 NDo=     1
 LinEq1:  Iter=  1 NonCon=     1 RMS=4.41D-07 Max=5.70D-06 NDo=     1
 LinEq1:  Iter=  2 NonCon=     1 RMS=1.16D-07 Max=1.44D-06 NDo=     1
 LinEq1:  Iter=  3 NonCon=     1 RMS=1.91D-08 Max=1.84D-07 NDo=     1
 LinEq1:  Iter=  4 NonCon=     1 RMS=4.74D-09 Max=3.80D-08 NDo=     1
 LinEq1:  Iter=  5 NonCon=     0 RMS=7.10D-10 Max=6.14D-09 NDo=     1
 Linear equations converged to 2.170D-09 2.170D-08 after     5 iterations.
 Angle between quadratic step and gradient=  88.30 degrees.
     ILin= 1 X=0.000D+00 Y=-2.503306603043D+01 DE= 0.00D+00 F= -4.75D-07
     ILin= 2 X=1.000D+00 Y=-2.503306584151D+01 DE= 1.89D-07 F=  8.57D-07
     Reject lnstep minimum 3.588D-01 FVal=-2.503306611578D+01 Lims=  0.00D+00  1.00D+00
     ILin= 3 X=4.000D-01 Y=-2.503306611347D+01 DE=-8.30D-08 F=  5.67D-08
     A contracting polynomial of degree  3 produced  0.3571
 Iteration  24 EE= -25.0330661146914     Delta-E=       -0.000000084258 Grad=4.015D-04 Max rot=    0.0130 deg.
 QCNR:  CnvC1=2.72D-09 CnvC2=2.72D-08
 LinEq1:  Iter=  0 NonCon=     1 RMS=4.53D-06 Max=4.14D-05 NDo=     1
 LinEq1:  Iter=  1 NonCon=     1 RMS=1.04D-06 Max=8.70D-06 NDo=     1
 LinEq1:  Iter=  2 NonCon=     1 RMS=2.41D-07 Max=2.11D-06 NDo=     1
 LinEq1:  Iter=  3 NonCon=     1 RMS=6.95D-08 Max=5.75D-07 NDo=     1
 LinEq1:  Iter=  4 NonCon=     1 RMS=1.37D-08 Max=1.44D-07 NDo=     1
 LinEq1:  Iter=  5 NonCon=     1 RMS=3.43D-09 Max=3.81D-08 NDo=     1
 LinEq1:  Iter=  6 NonCon=     0 RMS=8.96D-10 Max=9.76D-09 NDo=     1
 Linear equations converged to 2.717D-09 2.717D-08 after     6 iterations.
 Angle between quadratic step and gradient=  80.10 degrees.
     ILin= 1 X=0.000D+00 Y=-2.503306611469D+01 DE= 0.00D+00 F= -7.41D-08
     ILin= 2 X=1.000D+00 Y=-2.503306615191D+01 DE=-3.72D-08 F= -3.84D-10
     Reject lnstep minimum 1.005D+00 FVal=-2.503306615192D+01 Lims=  0.00D+00  1.00D+00
     ILin= 3 X=2.000D+00 Y=-2.503306611546D+01 DE=-7.66D-10 F=  7.33D-08
     An  expanding polynomial of degree  3 produced  1.0052
     Minimum is close to point  2 DX=  5.20D-03 DF= -9.91D-13 DXR=  5.17D-03 DFR=  2.66D-05 which will be used.
 Iteration  25 EE= -25.0330661519141     Delta-E=       -0.000000037223 Grad=6.833D-05 Max rot=    0.0029 deg.
 QCNR:  CnvC1=6.83D-10 CnvC2=6.83D-09
 LinEq1:  Iter=  0 NonCon=     1 RMS=4.25D-07 Max=4.63D-06 NDo=     1
 LinEq1:  Iter=  1 NonCon=     1 RMS=1.70D-07 Max=2.08D-06 NDo=     1
 LinEq1:  Iter=  2 NonCon=     1 RMS=4.13D-08 Max=4.69D-07 NDo=     1
 LinEq1:  Iter=  3 NonCon=     1 RMS=6.19D-09 Max=4.94D-08 NDo=     1
 LinEq1:  Iter=  4 NonCon=     1 RMS=1.83D-09 Max=1.58D-08 NDo=     1
 LinEq1:  Iter=  5 NonCon=     0 RMS=4.19D-10 Max=3.06D-09 NDo=     1
 Linear equations converged to 6.833D-10 6.833D-09 after     5 iterations.
 Angle between quadratic step and gradient=  86.53 degrees.
     ILin= 1 X=0.000D+00 Y=-2.503306615191D+01 DE= 0.00D+00 F= -8.55D-09
     ILin= 2 X=1.000D+00 Y=-2.503306615198D+01 DE=-6.15D-11
 Iteration  26 EE= -25.0330661519756     Delta-E=       -0.000000000062 Grad=1.855D-04 Max rot=    0.0065 deg.
 QCNR:  CnvC1=1.85D-09 CnvC2=1.85D-08
 LinEq1:  Iter=  0 NonCon=     1 RMS=1.30D-06 Max=9.48D-06 NDo=     1
 LinEq1:  Iter=  1 NonCon=     1 RMS=4.47D-07 Max=3.79D-06 NDo=     1
 LinEq1:  Iter=  2 NonCon=     1 RMS=1.03D-07 Max=9.25D-07 NDo=     1
 LinEq1:  Iter=  3 NonCon=     1 RMS=2.28D-08 Max=2.03D-07 NDo=     1
 LinEq1:  Iter=  4 NonCon=     1 RMS=4.94D-09 Max=5.16D-08 NDo=     1
 LinEq1:  Iter=  5 NonCon=     0 RMS=1.49D-09 Max=1.67D-08 NDo=     1
 Linear equations converged to 1.855D-09 1.855D-08 after     5 iterations.
 Angle between quadratic step and gradient=  84.35 degrees.
     ILin= 1 X=0.000D+00 Y=-2.503306615198D+01 DE= 0.00D+00 F= -1.47D-08
     ILin= 2 X=1.000D+00 Y=-2.503306615810D+01 DE=-6.13D-09 F=  2.42D-09
     Accept linear search using points  1 and  2.
     An  expanding polynomial of degree  2 produced  0.8583
 Iteration  27 EE= -25.0330661582752     Delta-E=       -0.000000006300 Grad=5.897D-05 Max rot=    0.0022 deg.
 QCNR:  CnvC1=5.90D-10 CnvC2=5.90D-09
 LinEq1:  Iter=  0 NonCon=     1 RMS=4.16D-07 Max=4.57D-06 NDo=     1
 LinEq1:  Iter=  1 NonCon=     1 RMS=1.66D-07 Max=2.04D-06 NDo=     1
 LinEq1:  Iter=  2 NonCon=     1 RMS=3.71D-08 Max=3.20D-07 NDo=     1
 LinEq1:  Iter=  3 NonCon=     1 RMS=6.86D-09 Max=6.67D-08 NDo=     1
 LinEq1:  Iter=  4 NonCon=     1 RMS=1.50D-09 Max=1.43D-08 NDo=     1
 LinEq1:  Iter=  5 NonCon=     0 RMS=5.07D-10 Max=4.58D-09 NDo=     1
 Linear equations converged to 5.897D-10 5.897D-09 after     5 iterations.
 Angle between quadratic step and gradient=  86.86 degrees.
     ILin= 1 X=0.000D+00 Y=-2.503306615828D+01 DE= 0.00D+00 F= -9.16D-09
     ILin= 2 X=1.000D+00 Y=-2.503306615839D+01 DE=-1.19D-10
 Iteration  28 EE= -25.0330661583945     Delta-E=       -0.000000000119 Grad=2.120D-04 Max rot=    0.0089 deg.
 QCNR:  CnvC1=2.12D-09 CnvC2=2.12D-08
 LinEq1:  Iter=  0 NonCon=     1 RMS=1.06D-06 Max=9.59D-06 NDo=     1
 LinEq1:  Iter=  1 NonCon=     1 RMS=4.12D-07 Max=4.42D-06 NDo=     1
 LinEq1:  Iter=  2 NonCon=     1 RMS=8.75D-08 Max=9.52D-07 NDo=     1
 LinEq1:  Iter=  3 NonCon=     1 RMS=1.26D-08 Max=1.10D-07 NDo=     1
 LinEq1:  Iter=  4 NonCon=     1 RMS=3.42D-09 Max=4.29D-08 NDo=     1
 LinEq1:  Iter=  5 NonCon=     0 RMS=1.27D-09 Max=1.26D-08 NDo=     1
 Linear equations converged to 2.120D-09 2.120D-08 after     5 iterations.
 Angle between quadratic step and gradient=  84.93 degrees.
     ILin= 1 X=0.000D+00 Y=-2.503306615839D+01 DE= 0.00D+00 F= -1.52D-08
     ILin= 2 X=1.000D+00 Y=-2.503306616529D+01 DE=-6.90D-09 F=  1.37D-09
     Accept linear search using points  1 and  2.
     An  expanding polynomial of degree  2 produced  0.9170
     Minimum is close to point  2 DX= -8.30D-02 DF= -5.70D-11 DXR=  9.05D-02 DFR=  8.26D-03 which will be used.
 Iteration  29 EE= -25.0330661652933     Delta-E=       -0.000000006899 Grad=5.113D-05 Max rot=    0.0019 deg.
 QCNR:  CnvC1=5.11D-10 CnvC2=5.11D-09
 LinEq1:  Iter=  0 NonCon=     1 RMS=3.74D-07 Max=3.72D-06 NDo=     1
[...]
 NROrb=    126 NOA=     3 NOB=     3 NVA=   123 NVB=   123
 Leave Link  801 at Sun May 22 18:35:43 2022, MaxMem=   104857600 cpu:               0.0 elap:               0.0
 (Enter /apps/software/g16/l914.exe)
 UHF ground state
 Doing stability rather than CIS.
 Keep R1 and R2 ints in memory in symmetry-blocked form, NReq=40144005.
 FoFCou: FMM=F IPFlag=           0 FMFlag=           0 FMFlg1=           0
         NFxFlg=           0 DoJE=F BraDBF=F KetDBF=F FulRan=T
         wScrn=  0.000000 ICntrl=       600 IOpCl=  0 I1Cent=           0 NGrid=           0
         NMat0=    1 NMatS0=   8001 NMatT0=    0 NMatD0=    1 NMtDS0=    0 NMtDT0=    0
 Petite list used in FoFCou.
 MDV=   104857600 DFT=F DoStab=T Mixed=F DoRPA=F DoScal=F NonHer=F
 Making orbital integer symmetry assigments:
 Orbital symmetries:
 Alpha Orbitals:
       Occupied  (SG) (SG) (SG)
       Virtual   (SG) (PI) (PI) (SG) (PI) (PI) (SG) (SG) (PI) (PI)
                 (DLTA) (DLTA) (SG) (PI) (PI) (SG) (PI) (PI) (SG)
                 (SG) (PHI) (PHI) (DLTA) (DLTA) (PI) (PI) (SG)
                 (DLTA) (DLTA) (PI) (PI) (SG) (SG) (DLTA) (DLTA)
                 (PI) (PI) (SG) (PI) (PI) (SG) (PI) (PI) (SG) (?A)
                 (?A) (PI) (PI) (PHI) (PHI) (SG) (DLTA) (DLTA)
                 (SG) (PI) (PI) (DLTA) (DLTA) (PHI) (PHI) (DLTA)
                 (DLTA) (SG) (PI) (PI) (SG) (PHI) (PHI) (DLTA)
                 (DLTA) (PI) (PI) (SG) (SG) (DLTA) (DLTA) (PI)
                 (PI) (PI) (PI) (SG) (SG) (PI) (PI) (SG) (?A) (?A)
                 (PHI) (PHI) (DLTA) (DLTA) (DLTA) (DLTA) (PI) (PI)
                 (SG) (PI) (PI) (SG) (PHI) (PHI) (DLTA) (DLTA)
                 (PI) (PI) (SG) (PHI) (PHI) (DLTA) (DLTA) (PI)
                 (PI) (SG) (SG) (PI) (PI) (SG) (DLTA) (DLTA) (PI)
                 (PI) (SG) (SG)
 Beta  Orbitals:
       Occupied  (SG) (SG) (SG)
       Virtual   (PI) (PI) (SG) (SG) (SG) (PI) (PI) (SG) (PI) (PI)
                 (DLTA) (DLTA) (SG) (PI) (PI) (SG) (PI) (PI) (SG)
                 (SG) (SG) (PHI) (PHI) (DLTA) (DLTA) (PI) (PI)
                 (DLTA) (DLTA) (SG) (PI) (PI) (SG) (DLTA) (DLTA)
                 (PI) (PI) (PI) (PI) (SG) (SG) (PI) (PI) (SG) (?A)
                 (?A) (PHI) (PHI) (PI) (PI) (DLTA) (DLTA) (SG)
                 (DLTA) (DLTA) (SG) (PHI) (PHI) (PI) (PI) (DLTA)
                 (DLTA) (SG) (PI) (PI) (PHI) (PHI) (DLTA) (DLTA)
                 (SG) (SG) (PI) (PI) (SG) (DLTA) (DLTA) (PI) (PI)
                 (PI) (PI) (SG) (SG) (PI) (PI) (SG) (?A) (?A) (PHI)
                 (PHI) (DLTA) (DLTA) (DLTA) (DLTA) (PI) (PI) (SG)
                 (PI) (PI) (PHI) (PHI) (SG) (DLTA) (DLTA) (PI)
                 (PI) (SG) (PHI) (PHI) (DLTA) (DLTA) (PI) (PI)
                 (SG) (SG) (PI) (PI) (SG) (DLTA) (DLTA) (PI) (PI)
                 (SG) (SG)
    12 initial guesses have been made.
 Convergence on wavefunction:    0.001000000000000
 Davidson Disk Diagonalization:  ConvIn= 1.00D-03 SkipCon=T Conv= 1.00D-03.
 Max sub-space:  1476 roots to seek:    12 dimension of matrix:          738
 Iteration     1 Dimension    12 NMult     0 NNew     12
 CISAX will form    12 AO SS matrices at one time.
 NMat=    12 NSing=    12 JSym2X= 2.
 Excitation Energies [eV] at current iteration:
 Root      1 :     0.487016707805709
 Root      2 :     0.532970184666753
 Root      3 :     1.263355268895591
 Root      4 :     1.263355333281259
 Root      5 :     5.256185613526577
 Root      6 :     6.113083047694611
 Root      7 :     6.568128902553688
 Root      8 :     6.937411373368022
 Root      9 :    11.610182123473262
 Root     10 :    11.610183138214788
 Root     11 :    12.325006945641878
 Root     12 :    12.325007533226586
 Iteration     2 Dimension    24 NMult    12 NNew     12
 CISAX will form    12 AO SS matrices at one time.
 NMat=    12 NSing=    12 JSym2X= 2.
 Root      1 not converged, maximum delta is    0.060377829533294
 Excitation Energies [eV] at current iteration:
 Root      1 :     0.012648615022547   Change is   -0.474368092783162
 Root      2 :     0.015342218611978   Change is   -0.517627966054776
 Root      3 :     0.829316223199785   Change is   -0.434039045695807
 Root      4 :     0.829318845315026   Change is   -0.434036487966232
 Root      5 :     4.706896049689539   Change is   -0.549289563837039
 Root      6 :     5.442839042938664   Change is   -0.670244004755947
 Root      7 :     6.026935746390277   Change is   -0.910475626977746
 Root      8 :     6.492305059583551   Change is   -0.075823842970138
 Root      9 :     8.442986157324288   Change is   -3.167195966148975
 Root     10 :     8.443111467435013   Change is   -3.167071670779775
 Root     11 :    10.797216925807144   Change is   -1.527790607419441
 Root     12 :    10.799895097795952   Change is   -1.525111847845926
 Iteration     3 Dimension    27 NMult    24 NNew      3
 CISAX will form     3 AO SS matrices at one time.
 NMat=     3 NSing=     3 JSym2X= 2.
 Root      1 not converged, maximum delta is    0.006040097239732
 Excitation Energies [eV] at current iteration:
 Root      1 :     0.006813442303813   Change is   -0.005835172718734
 Root      2 :     0.006862783939681   Change is   -0.008479434672296
 Root      3 :     0.816871361340893   Change is   -0.012444861858891
 Iteration     4 Dimension    30 NMult    27 NNew      3
 CISAX will form     3 AO SS matrices at one time.
 NMat=     3 NSing=     3 JSym2X= 2.
 Root      1 has converged.
 Excitation Energies [eV] at current iteration:
 Root      1 :     0.006751867725572   Change is   -0.000061574578241
 Root      2 :     0.006752480721429   Change is   -0.000110303218253
 Root      3 :     0.816721233751684   Change is   -0.000150127589210
 Convergence achieved on expansion vectors.
 ***********************************************************************
 Stability analysis using <AA,BB:AA,BB> singles matrix:
 ***********************************************************************
 1PDM for each excited state written to RWF  633
 Ground to excited state transition densities written to RWF  633

 Eigenvectors of the stability matrix:
 
 Excited state symmetry could not be determined.
 Eigenvector   1:  2.272-?Sym  Eigenvalue= 0.0002481  <S**2>=1.041
      3A ->  6A       -0.68748
      3A ->  8A        0.65169
      3A -> 20A        0.28670
 The wavefunction is stable under the perturbations considered.
 Leave Link  914 at Sun May 22 18:35:47 2022, MaxMem=   104857600 cpu:               4.0 elap:               4.0
 (Enter /apps/software/g16/l508.exe)
 The wavefunction is already stable.
 Leave Link  508 at Sun May 22 18:35:47 2022, MaxMem=   104857600 cpu:               0.0 elap:               0.0
 (Enter /apps/software/g16/l601.exe)
 Copying SCF densities to generalized density rwf, IOpCl= 1 IROHF=0.

 **********************************************************************

            Population analysis using the SCF density.

 **********************************************************************

 Orbital symmetries:
 Alpha Orbitals:
       Occupied  (SG) (SG) (SG)
       Virtual   (SG) (PI) (PI) (SG) (PI) (PI) (SG) (SG) (PI) (PI)
                 (DLTA) (DLTA) (SG) (PI) (PI) (SG) (PI) (PI) (SG)
                 (SG) (PHI) (PHI) (DLTA) (DLTA) (PI) (PI) (SG)
                 (DLTA) (DLTA) (PI) (PI) (SG) (SG) (DLTA) (DLTA)
                 (PI) (PI) (SG) (PI) (PI) (SG) (PI) (PI) (SG) (?A)
                 (?A) (PI) (PI) (PHI) (PHI) (SG) (DLTA) (DLTA)
                 (SG) (PI) (PI) (DLTA) (DLTA) (PHI) (PHI) (DLTA)
                 (DLTA) (SG) (PI) (PI) (SG) (PHI) (PHI) (DLTA)
                 (DLTA) (PI) (PI) (SG) (SG) (DLTA) (DLTA) (PI)
                 (PI) (PI) (PI) (SG) (SG) (PI) (PI) (SG) (?A) (?A)
                 (PHI) (PHI) (DLTA) (DLTA) (DLTA) (DLTA) (PI) (PI)
                 (SG) (PI) (PI) (SG) (PHI) (PHI) (DLTA) (DLTA)
                 (PI) (PI) (SG) (PHI) (PHI) (DLTA) (DLTA) (PI)
                 (PI) (SG) (SG) (PI) (PI) (SG) (DLTA) (DLTA) (PI)
                 (PI) (SG) (SG)
 Beta  Orbitals:
       Occupied  (SG) (SG) (SG)
       Virtual   (PI) (PI) (SG) (SG) (SG) (PI) (PI) (SG) (PI) (PI)
                 (DLTA) (DLTA) (SG) (PI) (PI) (SG) (PI) (PI) (SG)
                 (SG) (SG) (PHI) (PHI) (DLTA) (DLTA) (PI) (PI)
                 (DLTA) (DLTA) (SG) (PI) (PI) (SG) (DLTA) (DLTA)
                 (PI) (PI) (PI) (PI) (SG) (SG) (PI) (PI) (SG) (?A)
                 (?A) (PHI) (PHI) (PI) (PI) (DLTA) (DLTA) (SG)
                 (DLTA) (DLTA) (SG) (PHI) (PHI) (PI) (PI) (DLTA)
                 (DLTA) (SG) (PI) (PI) (PHI) (PHI) (DLTA) (DLTA)
                 (SG) (SG) (PI) (PI) (SG) (DLTA) (DLTA) (PI) (PI)
                 (PI) (PI) (SG) (SG) (PI) (PI) (SG) (?A) (?A) (PHI)
                 (PHI) (DLTA) (DLTA) (DLTA) (DLTA) (PI) (PI) (SG)
                 (PI) (PI) (PHI) (PHI) (SG) (DLTA) (DLTA) (PI)
                 (PI) (SG) (PHI) (PHI) (DLTA) (DLTA) (PI) (PI)
                 (SG) (SG) (PI) (PI) (SG) (DLTA) (DLTA) (PI) (PI)
                 (SG) (SG)
 The electronic state is 1-SG.
 Alpha  occ. eigenvalues --   -7.70241  -0.54580  -0.31905
 Alpha virt. eigenvalues --    0.02188   0.02334   0.02334   0.04903   0.07692
 Alpha virt. eigenvalues --    0.07692   0.07893   0.10723   0.14364   0.14364
 Alpha virt. eigenvalues --    0.14548   0.14548   0.18616   0.23112   0.23112
 Alpha virt. eigenvalues --    0.24959   0.31181   0.31181   0.33003   0.35315
 Alpha virt. eigenvalues --    0.46159   0.46159   0.46257   0.46257   0.46971
 Alpha virt. eigenvalues --    0.46971   0.47430   0.50007   0.50007   0.50323
 Alpha virt. eigenvalues --    0.50323   0.50570   0.57451   0.64349   0.64349
 Alpha virt. eigenvalues --    0.72158   0.72158   0.83775   0.84360   0.84360
 Alpha virt. eigenvalues --    0.94199   1.05233   1.05233   1.05449   1.36960
 Alpha virt. eigenvalues --    1.36960   1.37595   1.37595   1.37880   1.37880
 Alpha virt. eigenvalues --    1.37892   1.38324   1.38324   1.39473   1.40371
 Alpha virt. eigenvalues --    1.40371   1.41051   1.41051   1.43852   1.43852
 Alpha virt. eigenvalues --    1.44465   1.44465   1.45178   1.47454   1.47454
 Alpha virt. eigenvalues --    1.56346   1.57718   1.57718   1.59246   1.59246
 Alpha virt. eigenvalues --    1.66988   1.66988   1.70850   1.84994   2.49828
 Alpha virt. eigenvalues --    2.49828   2.54410   2.54410   2.64905   2.64905
 Alpha virt. eigenvalues --    2.66077   2.72975   3.73769   3.73769   3.76531
 Alpha virt. eigenvalues --    3.91907   3.91907   3.93416   3.93416   3.94586
 Alpha virt. eigenvalues --    3.94586   3.95533   3.95533   3.96220   3.96220
 Alpha virt. eigenvalues --    3.96603   3.97265   3.97265   4.07425   4.08542
 Alpha virt. eigenvalues --    4.08542   4.10090   4.10090   4.12847   4.12847
 Alpha virt. eigenvalues --    4.18054   6.58660   6.58660   6.58914   6.58914
 Alpha virt. eigenvalues --    6.60344   6.60344   6.62849   7.53796   8.00474
 Alpha virt. eigenvalues --    8.00474   8.05025   8.43836   8.43836   8.46877
 Alpha virt. eigenvalues --    8.46877   8.55372  13.08588
  Beta  occ. eigenvalues --   -7.68739  -0.49334  -0.44667
  Beta virt. eigenvalues --    0.02695   0.02695   0.04237   0.05361   0.07915
  Beta virt. eigenvalues --    0.08390   0.08390   0.11519   0.14279   0.14279
  Beta virt. eigenvalues --    0.14553   0.14553   0.18236   0.21611   0.21611
  Beta virt. eigenvalues --    0.26277   0.31978   0.31978   0.35225   0.36019
  Beta virt. eigenvalues --    0.42940   0.46152   0.46152   0.46591   0.46591
  Beta virt. eigenvalues --    0.47719   0.47719   0.50114   0.50114   0.51721
  Beta virt. eigenvalues --    0.52970   0.52970   0.58001   0.63087   0.63087
  Beta virt. eigenvalues --    0.70487   0.70487   0.78485   0.78485   0.80162
  Beta virt. eigenvalues --    0.91356   1.06135   1.06135   1.12676   1.36933
  Beta virt. eigenvalues --    1.36933   1.38395   1.38395   1.38411   1.38411
  Beta virt. eigenvalues --    1.39150   1.39150   1.39222   1.41555   1.41555
  Beta virt. eigenvalues --    1.43603   1.43914   1.43914   1.45024   1.45024
  Beta virt. eigenvalues --    1.45971   1.45971   1.48652   1.49910   1.49910
  Beta virt. eigenvalues --    1.56465   1.56465   1.58160   1.58160   1.58571
  Beta virt. eigenvalues --    1.61990   1.66384   1.66384   1.83018   2.45895
  Beta virt. eigenvalues --    2.45895   2.50342   2.50342   2.57739   2.57739
  Beta virt. eigenvalues --    2.60663   2.67846   3.74465   3.74465   3.81298
  Beta virt. eigenvalues --    3.91973   3.91973   3.94501   3.94501   3.95981
  Beta virt. eigenvalues --    3.95981   3.96510   3.96510   3.98990   3.98990
  Beta virt. eigenvalues --    4.00261   4.00408   4.00408   4.08806   4.08806
  Beta virt. eigenvalues --    4.10934   4.12223   4.12223   4.16148   4.16148
  Beta virt. eigenvalues --    4.21753   6.55778   6.55778   6.56037   6.56037
  Beta virt. eigenvalues --    6.57480   6.57480   6.59994   7.45718   7.94697
  Beta virt. eigenvalues --    7.94697   7.99301   8.39619   8.39619   8.42683
  Beta virt. eigenvalues --    8.42683   8.51225  13.09728
          Condensed to atoms (all electrons):
               1          2
     1  B    4.998552  -0.000569
     2  H   -0.000569   1.002585
          Atomic-Atomic Spin Densities.
               1          2
     1  B    0.998185   0.002048
     2  H    0.002048  -1.002281
 Mulliken charges and spin densities:
               1          2
     1  B    0.002017   1.000233
     2  H   -0.002017  -1.000233
 Sum of Mulliken charges =  -0.00000   0.00000
 Mulliken charges and spin densities with hydrogens summed into heavy atoms:
               1          2
     1  B   -0.000000   0.000000
 Electronic spatial extent (au):  <R**2>=             61.9278
 Charge=             -0.0000 electrons
 Dipole moment (field-independent basis, Debye):
    X=              0.0000    Y=              0.0000    Z=              0.0591  Tot=              0.0591
 Quadrupole moment (field-independent basis, Debye-Ang):
   XX=             -7.3101   YY=             -7.3101   ZZ=            -10.8763
   XY=              0.0000   XZ=              0.0000   YZ=              0.0000
 Traceless Quadrupole moment (field-independent basis, Debye-Ang):
   XX=              1.1888   YY=              1.1888   ZZ=             -2.3775
   XY=              0.0000   XZ=              0.0000   YZ=              0.0000
 Octapole moment (field-independent basis, Debye-Ang**2):
  XXX=              0.0000  YYY=              0.0000  ZZZ=             -3.8310  XYY=              0.0000
  XXY=              0.0000  XXZ=              0.5388  XZZ=              0.0000  YZZ=              0.0000
  YYZ=              0.5388  XYZ=              0.0000
 Hexadecapole moment (field-independent basis, Debye-Ang**3):
 XXXX=            -10.7434 YYYY=            -10.7434 ZZZZ=           -129.1152 XXXY=              0.0000
 XXXZ=              0.0000 YYYX=              0.0000 YYYZ=              0.0000 ZZZX=              0.0000
 ZZZY=              0.0000 XXYY=             -3.5811 XXZZ=            -21.3766 YYZZ=            -21.3766
 XXYZ=              0.0000 YYXZ=              0.0000 ZZXY=              0.0000
 N-N= 6.962858038421D-01 E-N=-5.929524879180D+01  KE= 2.503119068649D+01
 Symmetry A1   KE= 2.503119068649D+01
 Symmetry A2   KE= 0.000000000000D+00
 Symmetry B1   KE= 0.000000000000D+00
 Symmetry B2   KE= 0.000000000000D+00
 Symmetry A1   SP= 2.379434081816D-15
 Symmetry A2   SP= 0.000000000000D+00
 Symmetry B1   SP= 0.000000000000D+00
 Symmetry B2   SP= 0.000000000000D+00
                          Isotropic Fermi Contact Couplings
        Atom                 a.u.       MegaHertz       Gauss      10(-4) cm-1
     1  B(11)             -0.00030      -0.21546      -0.07688      -0.07187
     2  H(1)              -0.29810    -666.23977    -237.73092    -222.23367
 --------------------------------------------------------
       Center         ----  Spin Dipole Couplings  ----
                      3XX-RR        3YY-RR        3ZZ-RR
 --------------------------------------------------------
     1   Atom       -0.327913     -0.327913      0.655825
     2   Atom       -0.003845     -0.003845      0.007690
 --------------------------------------------------------
                        XY            XZ            YZ
 --------------------------------------------------------
     1   Atom        0.000000      0.000000      0.000000
     2   Atom        0.000000      0.000000      0.000000
 --------------------------------------------------------


 ---------------------------------------------------------------------------------
              Anisotropic Spin Dipole Couplings in Principal Axis System
 ---------------------------------------------------------------------------------

       Atom             a.u.   MegaHertz   Gauss  10(-4) cm-1        Axes

              Baa    -0.3279   -56.143   -20.033   -18.727 -0.0000  1.0000  0.0000
     1 B(11)  Bbb    -0.3279   -56.143   -20.033   -18.727  1.0000  0.0000  0.0000
              Bcc     0.6558   112.287    40.067    37.455  0.0000  0.0000  1.0000
 
              Baa    -0.0038    -2.051    -0.732    -0.684 -0.0000  1.0000  0.0000
     2 H(1)   Bbb    -0.0038    -2.051    -0.732    -0.684  1.0000  0.0000  0.0000
              Bcc     0.0077     4.103     1.464     1.369  0.0000  0.0000  1.0000
 

 ---------------------------------------------------------------------------------

 No NMR shielding tensors so no spin-rotation constants.
 Leave Link  601 at Sun May 22 18:35:47 2022, MaxMem=   104857600 cpu:               0.2 elap:               0.2
 (Enter /apps/software/g16/l9999.exe)
 1\1\GINC-CNODE13\Stability\UHF\Aug-CC-pVQZ\B1H1\LCZ\22-May-2022\0\\#p 
 UHF/aug-cc-pVQZ guess=mix stable=opt\\BH UHF at 3.8 Angstrom\\0,1\B,0,
 0.,0.,0.\H,0,3.8,0.,0.\\Version=ES64L-G16RevA.03\State=1-SG\HF=-25.033
 0662\S2=1.005095\S2-1=0.\S2A=0.087993\RMSD=8.185e-09\Dipole=-0.0232495
 ,0.,0.\Quadrupole=-1.7676176,0.8838087,0.8838089,0.,0.,0.\PG=C*V [C*(H
 1B1)]\\@


 TO DETECT ERRORS, THE PROGRAMMER MUST HAVE A CONNIVING MIND,
 ONE THAT DELIGHTS IN UNCOVERING FLAWS WHERE BEAUTY AND
 PERFECTION WERE ONCE THOUGHT TO LIE.

             -- THE PSYCHOLOGY OF COMPUTER PROGRAMMING
                GERALD M. WEINBERG
 Job cpu time:       0 days  0 hours  0 minutes 25.3 seconds.
 Elapsed time:       0 days  0 hours  0 minutes 25.3 seconds.
 File lengths (MBytes):  RWF=     33 Int=      0 D2E=      0 Chk=      4 Scr=      1
 Normal termination of Gaussian 16 at Sun May 22 18:35:47 2022.

Sender: Unischeduler System <lcz@mgt01>
Subject: Job 134195: <#!/bin/bash
#BSUB -J intel
#BSUB -o BH-3.8-UHF-G.out
#BSUB -n 8
#BSUB -q cqueue
#BSUB -R span[hosts=1]
export g16root=/apps/software
source /apps/software/g16/bsd/g16.profile
export GAUSS_SCRDIR=/scratch
/apps/software/g16/g16 < BH-3.8-UHF-G.inp > BH-3.8-UHF-G.out> Done

Job <#!/bin/bash
#BSUB -J intel
#BSUB -o BH-3.8-UHF-G.out
#BSUB -n 8
#BSUB -q cqueue
#BSUB -R span[hosts=1]
export g16root=/apps/software
source /apps/software/g16/bsd/g16.profile
export GAUSS_SCRDIR=/scratch
/apps/software/g16/g16 < BH-3.8-UHF-G.inp > BH-3.8-UHF-G.out> was submitted from host <mgt01> by user <lcz>.
Job was executed on host(s) <8*cnode13>, in queue <cqueue>, as user <lcz>.
</apps/users/lcz> was used as the home directory.
</apps/users/lcz/exe13/UCCSD> was used as the working directory.
Started at 2022-05-22 18:35:22
Results reported at 2022-05-22 18:35:47

Your job looked like:

------------------------------------------------------------
# User input
#!/bin/bash
#BSUB -J intel
#BSUB -o BH-3.8-UHF-G.out
#BSUB -n 8
#BSUB -q cqueue
#BSUB -R span[hosts=1]
export g16root=/apps/software
source /apps/software/g16/bsd/g16.profile
export GAUSS_SCRDIR=/scratch
/apps/software/g16/g16 < BH-3.8-UHF-G.inp > BH-3.8-UHF-G.out
------------------------------------------------------------

Successfully completed.

Resource usage summary:

    CPU time   :           15.55 sec.
    Max Memory :               482 MB
    Max Processes  :               5


The output (if any) follows:

