 Entering Gaussian System, Link 0=/apps/software/g16/g16
 Initial command:
 /apps/software/g16/l1.exe "/scratch/Gau-212305.inp" -scrdir="/scratch/"
 Entering Link 1 = /apps/software/g16/l1.exe PID=    212306.
  
 Copyright (c) 1988,1990,1992,1993,1995,1998,2003,2009,2016,
            Gaussian, Inc.  All Rights Reserved.
  
 This is part of the Gaussian(R) 16 program.  It is based on
 the Gaussian(R) 09 system (copyright 2009, Gaussian, Inc.),
 the Gaussian(R) 03 system (copyright 2003, Gaussian, Inc.),
 the Gaussian(R) 98 system (copyright 1998, Gaussian, Inc.),
 the Gaussian(R) 94 system (copyright 1995, Gaussian, Inc.),
 the Gaussian 92(TM) system (copyright 1992, Gaussian, Inc.),
 the Gaussian 90(TM) system (copyright 1990, Gaussian, Inc.),
 the Gaussian 88(TM) system (copyright 1988, Gaussian, Inc.),
 the Gaussian 86(TM) system (copyright 1986, Carnegie Mellon
 University), and the Gaussian 82(TM) system (copyright 1983,
 Carnegie Mellon University). Gaussian is a federally registered
 trademark of Gaussian, Inc.
  
 This software contains proprietary and confidential information,
 including trade secrets, belonging to Gaussian, Inc.
  
 This software is provided under written license and may be
 used, copied, transmitted, or stored only in accord with that
 written license.
  
 The following legend is applicable only to US Government
 contracts under FAR:
  
                    RESTRICTED RIGHTS LEGEND
  
 Use, reproduction and disclosure by the US Government is
 subject to restrictions as set forth in subparagraphs (a)
 and (c) of the Commercial Computer Software - Restricted
 Rights clause in FAR 52.227-19.
  
 Gaussian, Inc.
 340 Quinnipiac St., Bldg. 40, Wallingford CT 06492
  
  
 ---------------------------------------------------------------
 Warning -- This program may not be used in any manner that
 competes with the business of Gaussian, Inc. or will provide
 assistance to any competitor of Gaussian, Inc.  The licensee
 of this program is prohibited from giving any competitor of
 Gaussian, Inc. access to this program.  By using this program,
 the user acknowledges that Gaussian, Inc. is engaged in the
 business of creating and licensing software in the field of
 computational chemistry and represents and warrants to the
 licensee that it is not a competitor of Gaussian, Inc. and that
 it will not use this program in any manner prohibited above.
 ---------------------------------------------------------------
  

 Cite this work as:
 Gaussian 16, Revision A.03,
 M. J. Frisch, G. W. Trucks, H. B. Schlegel, G. E. Scuseria, 
 M. A. Robb, J. R. Cheeseman, G. Scalmani, V. Barone, 
 G. A. Petersson, H. Nakatsuji, X. Li, M. Caricato, A. V. Marenich, 
 J. Bloino, B. G. Janesko, R. Gomperts, B. Mennucci, H. P. Hratchian, 
 J. V. Ortiz, A. F. Izmaylov, J. L. Sonnenberg, D. Williams-Young, 
 F. Ding, F. Lipparini, F. Egidi, J. Goings, B. Peng, A. Petrone, 
 T. Henderson, D. Ranasinghe, V. G. Zakrzewski, J. Gao, N. Rega, 
 G. Zheng, W. Liang, M. Hada, M. Ehara, K. Toyota, R. Fukuda, 
 J. Hasegawa, M. Ishida, T. Nakajima, Y. Honda, O. Kitao, H. Nakai, 
 T. Vreven, K. Throssell, J. A. Montgomery, Jr., J. E. Peralta, 
 F. Ogliaro, M. J. Bearpark, J. J. Heyd, E. N. Brothers, K. N. Kudin, 
 V. N. Staroverov, T. A. Keith, R. Kobayashi, J. Normand, 
 K. Raghavachari, A. P. Rendell, J. C. Burant, S. S. Iyengar, 
 J. Tomasi, M. Cossi, J. M. Millam, M. Klene, C. Adamo, R. Cammi, 
 J. W. Ochterski, R. L. Martin, K. Morokuma, O. Farkas, 
 J. B. Foresman, and D. J. Fox, Gaussian, Inc., Wallingford CT, 2016.
 
 ******************************************
 Gaussian 16:  ES64L-G16RevA.03 25-Dec-2016
                22-May-2022 
 ******************************************
 %oldchk=BH-3.0-UHF-G.chk
 %chk=BH-3.0-UCCSD-G.chk
 Copying data from "BH-3.0-UHF-G.chk" to current chk file "BH-3.0-UCCSD-G.chk"
 IOpt=  2 FromEx=T IUOpen= 4 IOptOp= 5 NList=   0 IFRang= 0 IUIn= 4 IUOut= 2.
 -------------------------------------
 #p UHF/aug-cc-pVQZ guess=read CCSD=FC
 -------------------------------------
 1/38=1,172=1/1;
 2/12=2,17=6,18=5,40=1/2;
 3/5=16,6=2,7=10,11=2,25=1,30=1,116=2/1,2,3;
 4/5=1/1;
 5/5=2,38=6/2;
 8/6=4,9=120000,10=1/1,4;
 9/5=7/13;
 6/7=2,8=2,9=2,10=2/1;
 99/5=1,9=1/99;
 Leave Link    1 at Sun May 22 18:34:39 2022, MaxMem=   104857600 cpu:               0.0 elap:               0.0
 (Enter /apps/software/g16/l101.exe)
 ------------------------
 BH UCCSD at 3.0 Angstrom
 ------------------------
 Symbolic Z-matrix:
 Charge =  0 Multiplicity = 1
 B                     0.        0.        0. 
 H                     3.        0.        0. 
 
 ITRead=  0  0
 MicOpt= -1 -1
 NAtoms=      2 NQM=        2 NQMF=       0 NMMI=      0 NMMIF=      0
                NMic=       0 NMicF=      0.
                    Isotopes and Nuclear Properties:
 (Nuclear quadrupole moments (NQMom) in fm**2, nuclear magnetic moments (NMagM)
  in nuclear magnetons)

  Atom         1           2
 IAtWgt=          11           1
 AtmWgt=  11.0093053   1.0078250
 NucSpn=           3           1
 AtZEff=  -0.0000000  -0.0000000
 NQMom=    4.0590000   0.0000000
 NMagM=    2.6886370   2.7928460
 AtZNuc=   5.0000000   1.0000000
 Leave Link  101 at Sun May 22 18:34:39 2022, MaxMem=   104857600 cpu:               0.1 elap:               0.1
 (Enter /apps/software/g16/l202.exe)
                          Input orientation:                          
 ---------------------------------------------------------------------
 Center     Atomic      Atomic             Coordinates (Angstroms)
 Number     Number       Type             X           Y           Z
 ---------------------------------------------------------------------
      1          5           0        0.000000    0.000000    0.000000
      2          1           0        3.000000    0.000000    0.000000
 ---------------------------------------------------------------------
 Stoichiometry    BH
 Framework group  C*V[C*(HB)]
 Deg. of freedom     1
 Full point group                 C*V     NOp   4
 Largest Abelian subgroup         C2V     NOp   4
 Largest concise Abelian subgroup C1      NOp   1
                         Standard orientation:                         
 ---------------------------------------------------------------------
 Center     Atomic      Atomic             Coordinates (Angstroms)
 Number     Number       Type             X           Y           Z
 ---------------------------------------------------------------------
      1          5           0        0.000000    0.000000    0.500000
      2          1           0        0.000000    0.000000   -2.500000
 ---------------------------------------------------------------------
 Rotational constants (GHZ):           0.0000000          60.8177576          60.8177576
 Leave Link  202 at Sun May 22 18:34:39 2022, MaxMem=   104857600 cpu:               0.0 elap:               0.0
 (Enter /apps/software/g16/l301.exe)
 Standard basis: Aug-CC-pVQZ (5D, 7F)
 Ernie: Thresh=  0.10000D-02 Tol=  0.10000D-05 Strict=F.
 Ernie:  4 primitive shells out of 54 were deleted.
 There are    68 symmetry adapted cartesian basis functions of A1  symmetry.
 There are    18 symmetry adapted cartesian basis functions of A2  symmetry.
 There are    37 symmetry adapted cartesian basis functions of B1  symmetry.
 There are    37 symmetry adapted cartesian basis functions of B2  symmetry.
 There are    50 symmetry adapted basis functions of A1  symmetry.
 There are    16 symmetry adapted basis functions of A2  symmetry.
 There are    30 symmetry adapted basis functions of B1  symmetry.
 There are    30 symmetry adapted basis functions of B2  symmetry.
   126 basis functions,   180 primitive gaussians,   160 cartesian basis functions
     3 alpha electrons        3 beta electrons
       nuclear repulsion energy         0.8819620182 Hartrees.
 IExCor=    0 DFT=F Ex=HF Corr=None ExCW=0 ScaHFX=  1.000000
 ScaDFX=  1.000000  1.000000  1.000000  1.000000 ScalE2=  1.000000  1.000000
 IRadAn=      5 IRanWt=     -1 IRanGd=            0 ICorTp=0 IEmpDi=  4
 NAtoms=    2 NActive=    2 NUniq=    2 SFac= 1.00D+00 NAtFMM=   60 NAOKFM=F Big=F
 Integral buffers will be    131072 words long.
 Raffenetti 2 integral format.
 Two-electron integral symmetry is turned on.
 Leave Link  301 at Sun May 22 18:34:40 2022, MaxMem=   104857600 cpu:               0.1 elap:               0.1
 (Enter /apps/software/g16/l302.exe)
 NPDir=0 NMtPBC=     1 NCelOv=     1 NCel=       1 NClECP=     1 NCelD=      1
         NCelK=      1 NCelE2=     1 NClLst=     1 CellRange=     0.0.
 One-electron integrals computed using PRISM.
 One-electron integral symmetry used in STVInt
 NBasis=   126 RedAO= T EigKep=  2.29D-03  NBF=    50    16    30    30
 NBsUse=   126 1.00D-06 EigRej= -1.00D+00 NBFU=    50    16    30    30
 Leave Link  302 at Sun May 22 18:34:40 2022, MaxMem=   104857600 cpu:               0.1 elap:               0.1
 (Enter /apps/software/g16/l303.exe)
 DipDrv:  MaxL=1.
 Leave Link  303 at Sun May 22 18:34:40 2022, MaxMem=   104857600 cpu:               0.0 elap:               0.0
 (Enter /apps/software/g16/l401.exe)
 Initial guess from the checkpoint file:  "BH-3.0-UCCSD-G.chk"
 B after Tr=     0.000000    0.000000    0.000000
         Rot=    1.000000    0.000000    0.000000    0.000000 Ang=   0.00 deg.
 Guess basis will be translated and rotated to current coordinates.
 JPrj=2 DoOrth=T DoCkMO=T.
 Initial guess orbital symmetries:
 Alpha Orbitals:
       Occupied  (SG) (SG) (SG)
       Virtual   (PI) (PI) (SG) (SG) (PI) (PI) (SG) (SG) (PI) (PI)
                 (DLTA) (DLTA) (SG) (PI) (PI) (SG) (SG) (PI) (PI)
                 (SG) (DLTA) (DLTA) (PHI) (PHI) (PI) (PI) (DLTA)
                 (DLTA) (SG) (PI) (PI) (SG) (SG) (DLTA) (DLTA)
                 (PI) (PI) (PI) (PI) (SG) (SG) (PI) (PI) (SG) (DLTA)
                 (DLTA) (PI) (PI) (?A) (?A) (PHI) (PHI) (SG) (SG)
                 (DLTA) (DLTA) (PI) (PI) (PHI) (PHI) (DLTA) (DLTA)
                 (SG) (PI) (PI) (PHI) (PHI) (DLTA) (DLTA) (SG)
                 (SG) (PI) (PI) (SG) (DLTA) (DLTA) (PI) (PI) (PI)
                 (PI) (SG) (SG) (PI) (PI) (SG) (?A) (?A) (PHI)
                 (PHI) (DLTA) (DLTA) (PI) (PI) (DLTA) (DLTA) (SG)
                 (PI) (PI) (PHI) (PHI) (DLTA) (DLTA) (PI) (PI)
                 (SG) (SG) (PHI) (PHI) (DLTA) (DLTA) (PI) (PI)
                 (SG) (SG) (PI) (PI) (SG) (DLTA) (DLTA) (PI) (PI)
                 (SG) (SG)
 Beta  Orbitals:
       Occupied  (SG) (SG) (SG)
       Virtual   (PI) (PI) (SG) (SG) (PI) (PI) (SG) (SG) (PI) (PI)
                 (DLTA) (DLTA) (SG) (PI) (PI) (SG) (PI) (PI) (SG)
                 (SG) (PHI) (PHI) (DLTA) (DLTA) (SG) (DLTA) (DLTA)
                 (PI) (PI) (PI) (PI) (SG) (SG) (DLTA) (DLTA) (PI)
                 (PI) (PI) (PI) (SG) (SG) (PI) (PI) (SG) (DLTA)
                 (DLTA) (?A) (?A) (PHI) (PHI) (PI) (PI) (SG) (DLTA)
                 (DLTA) (SG) (PHI) (PHI) (PI) (PI) (DLTA) (DLTA)
                 (SG) (PI) (PI) (PHI) (PHI) (SG) (DLTA) (DLTA)
                 (SG) (PI) (PI) (SG) (DLTA) (DLTA) (PI) (PI) (PI)
                 (PI) (SG) (SG) (PI) (PI) (SG) (?A) (?A) (PHI)
                 (PHI) (DLTA) (DLTA) (DLTA) (DLTA) (PI) (PI) (SG)
                 (PHI) (PHI) (PI) (PI) (DLTA) (DLTA) (PI) (PI)
                 (SG) (SG) (PHI) (PHI) (DLTA) (DLTA) (PI) (PI)
                 (SG) (SG) (PI) (PI) (SG) (DLTA) (DLTA) (PI) (PI)
                 (SG) (SG)
 The electronic state of the initial guess is 1-SG.
 Initial guess <Sx>= 0.0000 <Sy>= 0.0000 <Sz>= 0.0000 <S**2>= 0.9648 S= 0.6022
 Leave Link  401 at Sun May 22 18:34:40 2022, MaxMem=   104857600 cpu:               0.1 elap:               0.1
 (Enter /apps/software/g16/l502.exe)
 Keep R1 and R2 ints in memory in symmetry-blocked form, NReq=40143665.
 FoFCou: FMM=F IPFlag=           0 FMFlag=           0 FMFlg1=           0
         NFxFlg=           0 DoJE=F BraDBF=F KetDBF=F FulRan=T
         wScrn=  0.000000 ICntrl=       600 IOpCl=  0 I1Cent=           0 NGrid=           0
         NMat0=    1 NMatS0=   8001 NMatT0=    0 NMatD0=    1 NMtDS0=    0 NMtDT0=    0
 Petite list used in FoFCou.
 UHF open shell SCF:
 Using DIIS extrapolation, IDIIS=  1040.
 NGot=   104857600 LenX=    88563632 LenY=    88537591
 Requested convergence on RMS density matrix=1.00D-08 within 128 cycles.
 Requested convergence on MAX density matrix=1.00D-06.
 Requested convergence on             energy=1.00D-06.
 No special actions if energy rises.

 Cycle   1  Pass 1  IDiag  1:
 E= -25.0341069856139    
 DIIS: error= 1.30D-08 at cycle   1 NSaved=   1.
 NSaved= 1 IEnMin= 1 EnMin= -25.0341069856139     IErMin= 1 ErrMin= 1.30D-08
 ErrMax= 1.30D-08  0.00D+00 EMaxC= 1.00D-01 BMatC= 1.37D-14 BMatP= 1.37D-14
 IDIUse=1 WtCom= 1.00D+00 WtEn= 0.00D+00
 Coeff-Com:  0.100D+01
 Coeff:      0.100D+01
 Gap=     0.343 Goal=   None    Shift=    0.000
 Gap=     0.470 Goal=   None    Shift=    0.000
 RMSDP=3.10D-10 MaxDP=1.37D-08              OVMax= 8.27D-09

 SCF Done:  E(UHF) =  -25.0341069856     A.U. after    1 cycles
            NFock=  1  Conv=0.31D-09     -V/T= 2.0004
 <Sx>= 0.0000 <Sy>= 0.0000 <Sz>= 0.0000 <S**2>= 0.9648 S= 0.6022
 <L.S>=  0.00000000000    
 KE= 2.502359046612D+01 PE=-5.965217924659D+01 EE= 8.712519776665D+00
 Annihilation of the first spin contaminant:
 S**2 before annihilation     0.9648,   after     0.0784
 Leave Link  502 at Sun May 22 18:34:43 2022, MaxMem=   104857600 cpu:               3.5 elap:               3.6
 (Enter /apps/software/g16/l801.exe)
 Windowed orbitals will be sorted by symmetry type.
 ExpMin= 1.88D-02 ExpMax= 2.39D+04 ExpMxC= 2.30D+02 IAcc=3 IRadAn=         5 AccDes= 0.00D+00
 HarFok:  IExCor=  205 AccDes= 0.00D+00 IRadAn=         5 IDoV=-2 UseB2=F ITyADJ=14
 ICtDFT= 12500011 ScaDFX=  1.000000  1.000000  1.000000  1.000000
 DSYEVD-2 returned Info=        3401 IAlg= 4 N=    80 NDim=    80 NE2=     1309686 trying  DSYEV.
 Largest valence mixing into a core orbital is  3.12D-04
 Largest core mixing into a valence orbital is  1.08D-04
 Largest valence mixing into a core orbital is  4.08D-04
 Largest core mixing into a valence orbital is  1.36D-04
 Range of M.O.s used for correlation:     2   126
 NBasis=   126 NAE=     3 NBE=     3 NFC=     1 NFV=     0
 NROrb=    125 NOA=     2 NOB=     2 NVA=   123 NVB=   123
 Leave Link  801 at Sun May 22 18:34:43 2022, MaxMem=   104857600 cpu:               0.1 elap:               0.1
 (Enter /apps/software/g16/l804.exe)
 Open-shell transformation, MDV=   104857600 ITran=4 ISComp=2.
 Unit  1 TFree=        991730 TCopy=        422292.
 Semi-Direct transformation.
 ModeAB=           2 MOrb=             2 LenV=     104169796
 LASXX=       493564 LTotXX=      493564 LenRXX=      493564
 LTotAB=      510115 MaxLAS=     3220000 LenRXY=     3220000
 NonZer=     3359000 LenScr=     5754880 LnRSAI=           0
 LnScr1=           0 LExtra=           0 Total=      9468444
 MaxDsk=          -1 SrtSym=           F ITran=            4
 DoSDTr:  NPSUse=  1
 JobTyp=1 Pass  1:  I=   1 to   2.
 (rs|ai) integrals will be sorted in core.
 Complete sort for first half transformation.
 First half transformation complete.
 Complete sort for second half transformation.
 Second half transformation complete.
 ModeAB=           2 MOrb=             2 LenV=     104169796
 LASXX=       493564 LTotXX=      493564 LenRXX=     3220000
 LTotAB=      492482 MaxLAS=     3220000 LenRXY=      492482
 NonZer=     3359000 LenScr=     5754880 LnRSAI=           0
 LnScr1=           0 LExtra=           0 Total=      9467362
 MaxDsk=          -1 SrtSym=           F ITran=            4
 DoSDTr:  NPSUse=  1
 JobTyp=2 Pass  1:  I=   1 to   2.
 (rs|ai) integrals will be sorted in core.
 Complete sort for first half transformation.
 First half transformation complete.
 Complete sort for second half transformation.
 Second half transformation complete.
 Spin components of T(2) and E(2):
     alpha-alpha T2 =       0.1711722023D-02 E2=     -0.3450981304D-02
     alpha-beta  T2 =       0.2590739320D-01 E2=     -0.4538073276D-01
     beta-beta   T2 =       0.1511266166D-03 E2=     -0.2442112858D-03
 ANorm=    0.1013790038D+01
 E2 =    -0.4907592535D-01 EUMP2 =    -0.25083182910964D+02
 (S**2,0)=  0.96484D+00           (S**2,1)=  0.94460D+00
 E(PUHF)=      -0.25046971955D+02        E(PMP2)=      -0.25095918293D+02
 Leave Link  804 at Sun May 22 18:34:55 2022, MaxMem=   104857600 cpu:              11.0 elap:              11.1
 (Enter /apps/software/g16/l913.exe)
 CIDS:  MDV=   104857600.
 Frozen-core window:  NFC=   1 NFV=   0.
 IFCWin=0 IBDFC=1 NFBD=     0     0 NFCmp=     0     0 NFFFC=     0     0
 Using original routines for 1st iteration.
 Using DD4UQ or CC4UQ for 2nd and later iterations.
 Keep R2 and R3 ints in memory in symmetry-blocked form, NReq=40147367.
 FoFCou: FMM=F IPFlag=           0 FMFlag=           0 FMFlg1=           0
         NFxFlg=           0 DoJE=F BraDBF=F KetDBF=F FulRan=T
         wScrn=  0.000000 ICntrl=       600 IOpCl=  0 I1Cent=           0 NGrid=           0
         NMat0=    1 NMatS0=   8001 NMatT0=    0 NMatD0=    1 NMtDS0=    0 NMtDT0=    0
 Petite list used in FoFCou.
 CIDS: In Core Option IDoMem=           1.
 Coupled Cluster theory with single and double substitutions
 ===========================================================
 Iterations=  50 Convergence= 0.100D-06
 Produce multiple copies of IABC intergrals
 Iteration Nr.   1
 **********************
 DD1Dir will call FoFMem   1 times, MxPair=        10
 NAB=     4 NAA=     1 NBB=     1.
 E(PMP3)=      -0.25107934079D+02
 MP4(R+Q)=  0.13159474D-02
 Maximum subspace dimension=  5
 A-vector RMS=  2.2240536D-03 Max=  1.3780024D-02 conv= 1.00D-05.
 RLE energy=       -0.0629951964
 E3=       -0.12160111D-01        EUMP3=      -0.25095343022D+02
 E4(DQ)=   -0.41858734D-02        UMP4(DQ)=   -0.25099528895D+02
 E4(SDQ)=  -0.45503890D-02        UMP4(SDQ)=  -0.25099893411D+02
 VARIATIONAL ENERGIES WITH THE FIRST-ORDER WAVEFUNCTION:
 DE(Corr)= -0.59919627E-01 E(Corr)=     -25.094026612    
 NORM(A)=   0.10271706D+01
 Iteration Nr.   2
 **********************
 DD1Dir will call FoFMem   1 times, MxPair=        10
 NAB=     4 NAA=     1 NBB=     1.
 A-vector RMS=  1.0272890D-03 Max=  5.6056483D-03 conv= 1.00D-05.
 RLE energy=       -0.0688134217
 DE(Corr)= -0.65868051E-01 E(CORR)=     -25.099975037     Delta=-5.95D-03
 NORM(A)=   0.10362046D+01
 Iteration Nr.   3
 **********************
 DD1Dir will call FoFMem   1 times, MxPair=        10
 NAB=     4 NAA=     1 NBB=     1.
 A-vector RMS=  6.3140521D-04 Max=  4.3205721D-03 conv= 1.00D-05.
 RLE energy=       -0.0693866828
 DE(Corr)= -0.68809615E-01 E(CORR)=     -25.102916601     Delta=-2.94D-03
 NORM(A)=   0.10386630D+01
 Iteration Nr.   4
 **********************
 DD1Dir will call FoFMem   1 times, MxPair=        10
 NAB=     4 NAA=     1 NBB=     1.
 A-vector RMS=  3.1913937D-04 Max=  2.5199587D-03 conv= 1.00D-05.
 RLE energy=       -0.0698320601
 DE(Corr)= -0.69443466E-01 E(CORR)=     -25.103550451     Delta=-6.34D-04
 NORM(A)=   0.10407665D+01
 Iteration Nr.   5
 **********************
 DD1Dir will call FoFMem   1 times, MxPair=        10
 NAB=     4 NAA=     1 NBB=     1.
 A-vector RMS=  2.6939883D-04 Max=  2.4816376D-03 conv= 1.00D-05.
 RLE energy=       -0.0701158669
 DE(Corr)= -0.69768653E-01 E(CORR)=     -25.103875639     Delta=-3.25D-04
 NORM(A)=   0.10457215D+01
 Iteration Nr.   6
 **********************
 DD1Dir will call FoFMem   1 times, MxPair=        10
 NAB=     4 NAA=     1 NBB=     1.
 A-vector RMS=  2.9645233D-04 Max=  2.0715301D-03 conv= 1.00D-05.
 RLE energy=       -0.0704532505
 DE(Corr)= -0.70116287E-01 E(CORR)=     -25.104223273     Delta=-3.48D-04
 NORM(A)=   0.10524427D+01
 Iteration Nr.   7
 **********************
 DD1Dir will call FoFMem   1 times, MxPair=        10
 NAB=     4 NAA=     1 NBB=     1.
 A-vector RMS=  2.9127570D-04 Max=  2.1861045D-03 conv= 1.00D-05.
 RLE energy=       -0.0707470442
 DE(Corr)= -0.70424999E-01 E(CORR)=     -25.104531985     Delta=-3.09D-04
 NORM(A)=   0.10580924D+01
 Iteration Nr.   8
 **********************
 DD1Dir will call FoFMem   1 times, MxPair=        10
 NAB=     4 NAA=     1 NBB=     1.
 A-vector RMS=  2.2074099D-04 Max=  1.5815220D-03 conv= 1.00D-05.
 RLE energy=       -0.0708202551
 DE(Corr)= -0.70680668E-01 E(CORR)=     -25.104787653     Delta=-2.56D-04
 NORM(A)=   0.10619480D+01
 Iteration Nr.   9
 **********************
 DD1Dir will call FoFMem   1 times, MxPair=        10
 NAB=     4 NAA=     1 NBB=     1.
 A-vector RMS=  8.5138604D-05 Max=  4.4328233D-04 conv= 1.00D-05.
 RLE energy=       -0.0708144736
 DE(Corr)= -0.70797806E-01 E(CORR)=     -25.104904792     Delta=-1.17D-04
 NORM(A)=   0.10630028D+01
 Iteration Nr.  10
 **********************
 DD1Dir will call FoFMem   1 times, MxPair=        10
 NAB=     4 NAA=     1 NBB=     1.
 A-vector RMS=  3.1013273D-05 Max=  1.7481134D-04 conv= 1.00D-05.
 RLE energy=       -0.0707817851
 DE(Corr)= -0.70801760E-01 E(CORR)=     -25.104908746     Delta=-3.95D-06
 NORM(A)=   0.10630028D+01
 Iteration Nr.  11
 **********************
 DD1Dir will call FoFMem   1 times, MxPair=        10
 NAB=     4 NAA=     1 NBB=     1.
 A-vector RMS=  1.6131111D-05 Max=  1.1564662D-04 conv= 1.00D-05.
 RLE energy=       -0.0707719815
 DE(Corr)= -0.70781710E-01 E(CORR)=     -25.104888696     Delta= 2.00D-05
 NORM(A)=   0.10630330D+01
 Iteration Nr.  12
 **********************
 DD1Dir will call FoFMem   1 times, MxPair=        10
 NAB=     4 NAA=     1 NBB=     1.
 A-vector RMS=  6.4810087D-06 Max=  6.4849867D-05 conv= 1.00D-05.
 RLE energy=       -0.0707677849
 DE(Corr)= -0.70772707E-01 E(CORR)=     -25.104879693     Delta= 9.00D-06
 NORM(A)=   0.10630022D+01
 Iteration Nr.  13
 **********************
 DD1Dir will call FoFMem   1 times, MxPair=        10
 NAB=     4 NAA=     1 NBB=     1.
 A-vector RMS=  4.8276352D-06 Max=  3.5739420D-05 conv= 1.00D-05.
 RLE energy=       -0.0707680052
 DE(Corr)= -0.70769454E-01 E(CORR)=     -25.104876440     Delta= 3.25D-06
 NORM(A)=   0.10629844D+01
 Iteration Nr.  14
 **********************
 DD1Dir will call FoFMem   1 times, MxPair=        10
 NAB=     4 NAA=     1 NBB=     1.
 A-vector RMS=  2.5169189D-06 Max=  1.5449516D-05 conv= 1.00D-05.
 RLE energy=       -0.0707678974
 DE(Corr)= -0.70768855E-01 E(CORR)=     -25.104875840     Delta= 5.99D-07
 NORM(A)=   0.10629516D+01
 Iteration Nr.  15
 **********************
 DD1Dir will call FoFMem   1 times, MxPair=        10
 NAB=     4 NAA=     1 NBB=     1.
 A-vector RMS=  1.8645087D-06 Max=  1.3371673D-05 conv= 1.00D-05.
 RLE energy=       -0.0707676759
 DE(Corr)= -0.70768427E-01 E(CORR)=     -25.104875413     Delta= 4.28D-07
 NORM(A)=   0.10629286D+01
 Iteration Nr.  16
 **********************
 DD1Dir will call FoFMem   1 times, MxPair=        10
 NAB=     4 NAA=     1 NBB=     1.
 A-vector RMS=  1.2839355D-06 Max=  8.6127430D-06 conv= 1.00D-05.
 RLE energy=       -0.0707670084
 DE(Corr)= -0.70767989E-01 E(CORR)=     -25.104874975     Delta= 4.38D-07
 NORM(A)=   0.10629044D+01
 Iteration Nr.  17
 **********************
 DD1Dir will call FoFMem   1 times, MxPair=        10
 NAB=     4 NAA=     1 NBB=     1.
 A-vector RMS=  7.2807831D-07 Max=  4.6364184D-06 conv= 1.00D-05.
 RLE energy=       -0.0707660889
 DE(Corr)= -0.70767195E-01 E(CORR)=     -25.104874181     Delta= 7.94D-07
 NORM(A)=   0.10628789D+01
 Iteration Nr.  18
 **********************
 DD1Dir will call FoFMem   1 times, MxPair=        10
 NAB=     4 NAA=     1 NBB=     1.
 A-vector RMS=  4.6643838D-07 Max=  3.1815575D-06 conv= 1.00D-05.
 RLE energy=       -0.0707654936
 DE(Corr)= -0.70766266E-01 E(CORR)=     -25.104873252     Delta= 9.29D-07
 NORM(A)=   0.10628618D+01
 Iteration Nr.  19
 **********************
 DD1Dir will call FoFMem   1 times, MxPair=        10
 NAB=     4 NAA=     1 NBB=     1.
 A-vector RMS=  4.3817724D-07 Max=  2.8085976D-06 conv= 1.00D-05.
 RLE energy=       -0.0707651597
 DE(Corr)= -0.70765609E-01 E(CORR)=     -25.104872594     Delta= 6.57D-07
 NORM(A)=   0.10628509D+01
 Iteration Nr.  20
 **********************
 DD1Dir will call FoFMem   1 times, MxPair=        10
 NAB=     4 NAA=     1 NBB=     1.
 A-vector RMS=  3.5904302D-07 Max=  2.6551703D-06 conv= 1.00D-05.
 RLE energy=       -0.0707651167
 DE(Corr)= -0.70765247E-01 E(CORR)=     -25.104872233     Delta= 3.62D-07
 NORM(A)=   0.10628469D+01
 Iteration Nr.  21
 **********************
 DD1Dir will call FoFMem   1 times, MxPair=        10
 NAB=     4 NAA=     1 NBB=     1.
 A-vector RMS=  2.5166719D-07 Max=  1.8354084D-06 conv= 1.00D-05.
 RLE energy=       -0.0707651391
 DE(Corr)= -0.70765165E-01 E(CORR)=     -25.104872150     Delta= 8.24D-08
 NORM(A)=   0.10628445D+01
 CI/CC converged in   21 iterations to DelEn= 8.24D-08 Conv= 1.00D-07 ErrA1= 2.52D-07 Conv= 1.00D-05
 Wavefunction amplitudes converged. E(Corr)=     -25.104872150    
 Largest amplitude= 9.44D-02

 S**2, projected HF & approx projected MPn energies after annihilation of
 unwanted spin states (see manual for definitions):

 spins       (S**2,0) (S**2,1)    PUHF        PMP2        PMP3        PMP4
 annihilated
 s+1        -0.03997 -0.00696  -25.046972  -25.095918  -25.107934
 s+1,s+2     0.00000 -0.00000  -25.042390  -25.091403  -25.103484

 Discarding MO integrals.
 Leave Link  913 at Sun May 22 18:35:00 2022, MaxMem=   104857600 cpu:               5.1 elap:               5.1
 (Enter /apps/software/g16/l601.exe)
 Copying SCF densities to generalized density rwf, IOpCl= 1 IROHF=0.

 **********************************************************************

            Population analysis using the SCF density.

 **********************************************************************

 Orbital symmetries:
 Alpha Orbitals:
       Occupied  (SG) (SG) (SG)
       Virtual   (PI) (PI) (SG) (SG) (PI) (PI) (SG) (SG) (PI) (PI)
                 (DLTA) (DLTA) (SG) (PI) (PI) (SG) (SG) (PI) (PI)
                 (SG) (DLTA) (DLTA) (PHI) (PHI) (PI) (PI) (DLTA)
                 (DLTA) (SG) (PI) (PI) (SG) (SG) (DLTA) (DLTA)
                 (PI) (PI) (PI) (PI) (SG) (SG) (PI) (PI) (SG) (DLTA)
                 (DLTA) (PI) (PI) (?A) (?A) (PHI) (PHI) (SG) (SG)
                 (DLTA) (DLTA) (PI) (PI) (PHI) (PHI) (DLTA) (DLTA)
                 (SG) (PI) (PI) (PHI) (PHI) (DLTA) (DLTA) (SG)
                 (SG) (PI) (PI) (SG) (DLTA) (DLTA) (PI) (PI) (PI)
                 (PI) (SG) (SG) (PI) (PI) (SG) (?A) (?A) (PHI)
                 (PHI) (DLTA) (DLTA) (PI) (PI) (DLTA) (DLTA) (SG)
                 (PI) (PI) (PHI) (PHI) (DLTA) (DLTA) (PI) (PI)
                 (SG) (SG) (PHI) (PHI) (DLTA) (DLTA) (PI) (PI)
                 (SG) (SG) (PI) (PI) (SG) (DLTA) (DLTA) (PI) (PI)
                 (SG) (SG)
 Beta  Orbitals:
       Occupied  (SG) (SG) (SG)
       Virtual   (PI) (PI) (SG) (SG) (PI) (PI) (SG) (SG) (PI) (PI)
                 (DLTA) (DLTA) (SG) (PI) (PI) (SG) (PI) (PI) (SG)
                 (SG) (PHI) (PHI) (DLTA) (DLTA) (SG) (DLTA) (DLTA)
                 (PI) (PI) (PI) (PI) (SG) (SG) (DLTA) (DLTA) (PI)
                 (PI) (PI) (PI) (SG) (SG) (PI) (PI) (SG) (DLTA)
                 (DLTA) (?A) (?A) (PHI) (PHI) (PI) (PI) (SG) (DLTA)
                 (DLTA) (SG) (PHI) (PHI) (PI) (PI) (DLTA) (DLTA)
                 (SG) (PI) (PI) (PHI) (PHI) (SG) (DLTA) (DLTA)
                 (SG) (PI) (PI) (SG) (DLTA) (DLTA) (PI) (PI) (PI)
                 (PI) (SG) (SG) (PI) (PI) (SG) (?A) (?A) (PHI)
                 (PHI) (DLTA) (DLTA) (DLTA) (DLTA) (PI) (PI) (SG)
                 (PHI) (PHI) (PI) (PI) (DLTA) (DLTA) (PI) (PI)
                 (SG) (SG) (PHI) (PHI) (DLTA) (DLTA) (PI) (PI)
                 (SG) (SG) (PI) (PI) (SG) (DLTA) (DLTA) (PI) (PI)
                 (SG) (SG)
 The electronic state is 1-SG.
 Alpha  occ. eigenvalues --   -7.70736  -0.54793  -0.32045
 Alpha virt. eigenvalues --    0.02224   0.02224   0.02702   0.04720   0.07557
 Alpha virt. eigenvalues --    0.07557   0.08390   0.10648   0.14487   0.14487
 Alpha virt. eigenvalues --    0.14490   0.14490   0.18791   0.25140   0.25140
 Alpha virt. eigenvalues --    0.27660   0.30790   0.31308   0.31308   0.36204
 Alpha virt. eigenvalues --    0.45909   0.45909   0.46055   0.46055   0.47904
 Alpha virt. eigenvalues --    0.47904   0.49844   0.49844   0.50010   0.51909
 Alpha virt. eigenvalues --    0.51909   0.54938   0.60601   0.67768   0.67768
 Alpha virt. eigenvalues --    0.82073   0.82073   0.86274   0.86274   0.87888
 Alpha virt. eigenvalues --    0.93584   1.04661   1.04661   1.15598   1.35249
 Alpha virt. eigenvalues --    1.35249   1.36717   1.36717   1.36788   1.36788
 Alpha virt. eigenvalues --    1.37293   1.37293   1.37781   1.39748   1.40706
 Alpha virt. eigenvalues --    1.40706   1.40954   1.40954   1.43586   1.43586
 Alpha virt. eigenvalues --    1.45129   1.45129   1.49805   1.53548   1.53548
 Alpha virt. eigenvalues --    1.59012   1.59012   1.69534   1.69534   1.72071
 Alpha virt. eigenvalues --    1.84403   1.93419   1.93419   1.96540   2.52219
 Alpha virt. eigenvalues --    2.52219   2.64017   2.64017   2.67388   2.67388
 Alpha virt. eigenvalues --    2.74297   2.92548   3.73643   3.73643   3.85967
 Alpha virt. eigenvalues --    3.91625   3.91625   3.93176   3.93176   3.95060
 Alpha virt. eigenvalues --    3.95060   3.95905   3.95905   3.96364   3.96364
 Alpha virt. eigenvalues --    3.98394   4.08157   4.08157   4.08225   4.08225
 Alpha virt. eigenvalues --    4.09980   4.09980   4.13433   4.13433   4.18857
 Alpha virt. eigenvalues --    4.31932   6.59587   6.59587   6.61774   6.61774
 Alpha virt. eigenvalues --    6.69097   6.69097   6.72734   7.59186   8.03015
 Alpha virt. eigenvalues --    8.03015   8.24679   8.45712   8.45712   8.52537
 Alpha virt. eigenvalues --    8.52537   8.61823  13.11773
  Beta  occ. eigenvalues --   -7.69315  -0.49009  -0.44457
  Beta virt. eigenvalues --    0.02573   0.02573   0.03925   0.05507   0.08208
  Beta virt. eigenvalues --    0.08208   0.08493   0.11468   0.14442   0.14442
  Beta virt. eigenvalues --    0.14491   0.14491   0.18729   0.23605   0.23605
  Beta virt. eigenvalues --    0.26543   0.32021   0.32021   0.35328   0.36472
  Beta virt. eigenvalues --    0.46049   0.46049   0.46156   0.46156   0.47421
  Beta virt. eigenvalues --    0.49952   0.49952   0.50191   0.50191   0.52773
  Beta virt. eigenvalues --    0.52773   0.52980   0.60675   0.66630   0.66630
  Beta virt. eigenvalues --    0.78009   0.78009   0.83318   0.83318   0.85664
  Beta virt. eigenvalues --    0.94802   1.05531   1.05531   1.19287   1.35659
  Beta virt. eigenvalues --    1.35659   1.36760   1.36760   1.37762   1.37762
  Beta virt. eigenvalues --    1.37866   1.37866   1.38890   1.41251   1.41251
  Beta virt. eigenvalues --    1.43561   1.43632   1.43632   1.45442   1.45442
  Beta virt. eigenvalues --    1.46690   1.46690   1.52317   1.55410   1.55410
  Beta virt. eigenvalues --    1.57843   1.57843   1.67553   1.68745   1.68745
  Beta virt. eigenvalues --    1.80863   1.92843   1.92843   1.95751   2.48382
  Beta virt. eigenvalues --    2.48382   2.60078   2.60078   2.60657   2.60657
  Beta virt. eigenvalues --    2.70661   2.88131   3.74288   3.74288   3.89618
  Beta virt. eigenvalues --    3.91675   3.91675   3.94227   3.94227   3.95708
  Beta virt. eigenvalues --    3.95708   3.97986   3.97986   3.99475   3.99475
  Beta virt. eigenvalues --    4.02169   4.08459   4.08459   4.10252   4.10252
  Beta virt. eigenvalues --    4.12046   4.12046   4.16647   4.16647   4.22126
  Beta virt. eigenvalues --    4.35286   6.56748   6.56748   6.58963   6.58963
  Beta virt. eigenvalues --    6.66343   6.66343   6.69991   7.51292   7.97337
  Beta virt. eigenvalues --    7.97337   8.19294   8.41560   8.41560   8.48440
  Beta virt. eigenvalues --    8.48440   8.57775  13.12827
          Condensed to atoms (all electrons):
               1          2
     1  B    4.987397  -0.000184
     2  H   -0.000184   1.012970
          Atomic-Atomic Spin Densities.
               1          2
     1  B    0.977672   0.015455
     2  H    0.015455  -1.008582
 Mulliken charges and spin densities:
               1          2
     1  B    0.012787   0.993127
     2  H   -0.012787  -0.993127
 Sum of Mulliken charges =  -0.00000  -0.00000
 Mulliken charges and spin densities with hydrogens summed into heavy atoms:
               1          2
     1  B   -0.000000  -0.000000
 Electronic spatial extent (au):  <R**2>=             45.9968
 Charge=             -0.0000 electrons
 Dipole moment (field-independent basis, Debye):
    X=              0.0000    Y=              0.0000    Z=              0.2305  Tot=              0.2305
 Quadrupole moment (field-independent basis, Debye-Ang):
   XX=             -7.3154   YY=             -7.3154   ZZ=            -11.2124
   XY=              0.0000   XZ=              0.0000   YZ=              0.0000
 Traceless Quadrupole moment (field-independent basis, Debye-Ang):
   XX=              1.2990   YY=              1.2990   ZZ=             -2.5980
   XY=              0.0000   XZ=              0.0000   YZ=              0.0000
 Octapole moment (field-independent basis, Debye-Ang**2):
  XXX=              0.0000  YYY=              0.0000  ZZZ=             -1.6716  XYY=              0.0000
  XXY=              0.0000  XXZ=              0.5475  XZZ=              0.0000  YZZ=              0.0000
  YYZ=              0.5475  XYZ=              0.0000
 Hexadecapole moment (field-independent basis, Debye-Ang**3):
 XXXX=            -10.7353 YYYY=            -10.7353 ZZZZ=            -92.1779 XXXY=              0.0000
 XXXZ=              0.0000 YYYX=              0.0000 YYYZ=              0.0000 ZZZX=              0.0000
 ZZZY=              0.0000 XXYY=             -3.5784 XXZZ=            -15.6000 YYZZ=            -15.6000
 XXYZ=              0.0000 YYXZ=              0.0000 ZZXY=              0.0000
 N-N= 8.819620182000D-01 E-N=-5.965217925567D+01  KE= 2.502359046612D+01
 Symmetry A1   KE= 2.502359046612D+01
 Symmetry A2   KE= 9.257577194443D-50
 Symmetry B1   KE= 0.000000000000D+00
 Symmetry B2   KE= 0.000000000000D+00
 Symmetry A1   SP=-5.228675985869D-15
 Symmetry A2   SP=-5.533231587929D-51
 Symmetry B1   SP= 0.000000000000D+00
 Symmetry B2   SP= 0.000000000000D+00
 Leave Link  601 at Sun May 22 18:35:00 2022, MaxMem=   104857600 cpu:               0.0 elap:               0.1
 (Enter /apps/software/g16/l9999.exe)
 1\1\GINC-CNODE14\SP\UCCSD-FC\Aug-CC-pVQZ\B1H1\LCZ\22-May-2022\0\\#p UH
 F/aug-cc-pVQZ guess=read CCSD=FC\\BH UCCSD at 3.0 Angstrom\\0,1\B,0,0.
 ,0.,0.\H,0,3.,0.,0.\\Version=ES64L-G16RevA.03\State=1-SG\HF=-25.034107
 \MP2=-25.0831829\MP3=-25.095343\MP4D=-25.1008448\MP4DQ=-25.0995289\PUH
 F=-25.046972\PMP2-0=-25.0959183\PMP3-0=-25.1079341\MP4SDQ=-25.0998934\
 CCSD=-25.1048722\S2=0.96484\S2-1=0.944597\S2A=0.078371\RMSD=3.100e-10\
 PG=C*V [C*(H1B1)]\\@


 FROM THE ASHES OF OUR DESPAIR GROW THE FLOWERS OF TOMORROW.
 Job cpu time:       0 days  0 hours  0 minutes 20.5 seconds.
 Elapsed time:       0 days  0 hours  0 minutes 20.5 seconds.
 File lengths (MBytes):  RWF=    140 Int=      0 D2E=      0 Chk=     67 Scr=      1
 Normal termination of Gaussian 16 at Sun May 22 18:35:00 2022.

Sender: Unischeduler System <lcz@mgt01>
Subject: Job 134220: <#!/bin/bash
#BSUB -J intel
#BSUB -o BH-3.0-UCCSD-G.out
#BSUB -n 8
#BSUB -q cqueue
#BSUB -R span[hosts=1]
export g16root=/apps/software
source /apps/software/g16/bsd/g16.profile
export GAUSS_SCRDIR=/scratch
/apps/software/g16/g16 < BH-3.0-UCCSD-G.inp > BH-3.0-UCCSD-G.out> Done

Job <#!/bin/bash
#BSUB -J intel
#BSUB -o BH-3.0-UCCSD-G.out
#BSUB -n 8
#BSUB -q cqueue
#BSUB -R span[hosts=1]
export g16root=/apps/software
source /apps/software/g16/bsd/g16.profile
export GAUSS_SCRDIR=/scratch
/apps/software/g16/g16 < BH-3.0-UCCSD-G.inp > BH-3.0-UCCSD-G.out> was submitted from host <mgt01> by user <lcz>.
Job was executed on host(s) <8*cnode14>, in queue <cqueue>, as user <lcz>.
</apps/users/lcz> was used as the home directory.
</apps/users/lcz/exe13/UCCSD> was used as the working directory.
Started at 2022-05-22 18:34:39
Results reported at 2022-05-22 18:35:00

Your job looked like:

------------------------------------------------------------
# User input
#!/bin/bash
#BSUB -J intel
#BSUB -o BH-3.0-UCCSD-G.out
#BSUB -n 8
#BSUB -q cqueue
#BSUB -R span[hosts=1]
export g16root=/apps/software
source /apps/software/g16/bsd/g16.profile
export GAUSS_SCRDIR=/scratch
/apps/software/g16/g16 < BH-3.0-UCCSD-G.inp > BH-3.0-UCCSD-G.out
------------------------------------------------------------

Successfully completed.

Resource usage summary:

    CPU time   :           16.53 sec.
    Max Memory :               452 MB
    Max Processes  :               5


The output (if any) follows:

