 Entering Gaussian System, Link 0=/apps/software/g16/g16
 Initial command:
 /apps/software/g16/l1.exe "/scratch/Gau-404693.inp" -scrdir="/scratch/"
 Entering Link 1 = /apps/software/g16/l1.exe PID=    404694.
  
 Copyright (c) 1988,1990,1992,1993,1995,1998,2003,2009,2016,
            Gaussian, Inc.  All Rights Reserved.
  
 This is part of the Gaussian(R) 16 program.  It is based on
 the Gaussian(R) 09 system (copyright 2009, Gaussian, Inc.),
 the Gaussian(R) 03 system (copyright 2003, Gaussian, Inc.),
 the Gaussian(R) 98 system (copyright 1998, Gaussian, Inc.),
 the Gaussian(R) 94 system (copyright 1995, Gaussian, Inc.),
 the Gaussian 92(TM) system (copyright 1992, Gaussian, Inc.),
 the Gaussian 90(TM) system (copyright 1990, Gaussian, Inc.),
 the Gaussian 88(TM) system (copyright 1988, Gaussian, Inc.),
 the Gaussian 86(TM) system (copyright 1986, Carnegie Mellon
 University), and the Gaussian 82(TM) system (copyright 1983,
 Carnegie Mellon University). Gaussian is a federally registered
 trademark of Gaussian, Inc.
  
 This software contains proprietary and confidential information,
 including trade secrets, belonging to Gaussian, Inc.
  
 This software is provided under written license and may be
 used, copied, transmitted, or stored only in accord with that
 written license.
  
 The following legend is applicable only to US Government
 contracts under FAR:
  
                    RESTRICTED RIGHTS LEGEND
  
 Use, reproduction and disclosure by the US Government is
 subject to restrictions as set forth in subparagraphs (a)
 and (c) of the Commercial Computer Software - Restricted
 Rights clause in FAR 52.227-19.
  
 Gaussian, Inc.
 340 Quinnipiac St., Bldg. 40, Wallingford CT 06492
  
  
 ---------------------------------------------------------------
 Warning -- This program may not be used in any manner that
 competes with the business of Gaussian, Inc. or will provide
 assistance to any competitor of Gaussian, Inc.  The licensee
 of this program is prohibited from giving any competitor of
 Gaussian, Inc. access to this program.  By using this program,
 the user acknowledges that Gaussian, Inc. is engaged in the
 business of creating and licensing software in the field of
 computational chemistry and represents and warrants to the
 licensee that it is not a competitor of Gaussian, Inc. and that
 it will not use this program in any manner prohibited above.
 ---------------------------------------------------------------
  

 Cite this work as:
 Gaussian 16, Revision A.03,
 M. J. Frisch, G. W. Trucks, H. B. Schlegel, G. E. Scuseria, 
 M. A. Robb, J. R. Cheeseman, G. Scalmani, V. Barone, 
 G. A. Petersson, H. Nakatsuji, X. Li, M. Caricato, A. V. Marenich, 
 J. Bloino, B. G. Janesko, R. Gomperts, B. Mennucci, H. P. Hratchian, 
 J. V. Ortiz, A. F. Izmaylov, J. L. Sonnenberg, D. Williams-Young, 
 F. Ding, F. Lipparini, F. Egidi, J. Goings, B. Peng, A. Petrone, 
 T. Henderson, D. Ranasinghe, V. G. Zakrzewski, J. Gao, N. Rega, 
 G. Zheng, W. Liang, M. Hada, M. Ehara, K. Toyota, R. Fukuda, 
 J. Hasegawa, M. Ishida, T. Nakajima, Y. Honda, O. Kitao, H. Nakai, 
 T. Vreven, K. Throssell, J. A. Montgomery, Jr., J. E. Peralta, 
 F. Ogliaro, M. J. Bearpark, J. J. Heyd, E. N. Brothers, K. N. Kudin, 
 V. N. Staroverov, T. A. Keith, R. Kobayashi, J. Normand, 
 K. Raghavachari, A. P. Rendell, J. C. Burant, S. S. Iyengar, 
 J. Tomasi, M. Cossi, J. M. Millam, M. Klene, C. Adamo, R. Cammi, 
 J. W. Ochterski, R. L. Martin, K. Morokuma, O. Farkas, 
 J. B. Foresman, and D. J. Fox, Gaussian, Inc., Wallingford CT, 2016.
 
 ******************************************
 Gaussian 16:  ES64L-G16RevA.03 25-Dec-2016
                22-May-2022 
 ******************************************
 %oldchk=BH-4.6-UHF-G.chk
 %chk=BH-4.6-UCCSD-G.chk
 Copying data from "BH-4.6-UHF-G.chk" to current chk file "BH-4.6-UCCSD-G.chk"
 IOpt=  2 FromEx=T IUOpen= 4 IOptOp= 5 NList=   0 IFRang= 0 IUIn= 4 IUOut= 2.
 -------------------------------------
 #p UHF/aug-cc-pVQZ guess=read CCSD=FC
 -------------------------------------
 1/38=1,172=1/1;
 2/12=2,17=6,18=5,40=1/2;
 3/5=16,6=2,7=10,11=2,25=1,30=1,116=2/1,2,3;
 4/5=1/1;
 5/5=2,38=6/2;
 8/6=4,9=120000,10=1/1,4;
 9/5=7/13;
 6/7=2,8=2,9=2,10=2/1;
 99/5=1,9=1/99;
 Leave Link    1 at Sun May 22 18:39:08 2022, MaxMem=   104857600 cpu:               0.0 elap:               0.0
 (Enter /apps/software/g16/l101.exe)
 ------------------------
 BH UCCSD at 4.6 Angstrom
 ------------------------
 Symbolic Z-matrix:
 Charge =  0 Multiplicity = 1
 B                     0.        0.        0. 
 H                     4.6       0.        0. 
 
 ITRead=  0  0
 MicOpt= -1 -1
 NAtoms=      2 NQM=        2 NQMF=       0 NMMI=      0 NMMIF=      0
                NMic=       0 NMicF=      0.
                    Isotopes and Nuclear Properties:
 (Nuclear quadrupole moments (NQMom) in fm**2, nuclear magnetic moments (NMagM)
  in nuclear magnetons)

  Atom         1           2
 IAtWgt=          11           1
 AtmWgt=  11.0093053   1.0078250
 NucSpn=           3           1
 AtZEff=  -0.0000000  -0.0000000
 NQMom=    4.0590000   0.0000000
 NMagM=    2.6886370   2.7928460
 AtZNuc=   5.0000000   1.0000000
 Leave Link  101 at Sun May 22 18:39:08 2022, MaxMem=   104857600 cpu:               0.1 elap:               0.1
 (Enter /apps/software/g16/l202.exe)
                          Input orientation:                          
 ---------------------------------------------------------------------
 Center     Atomic      Atomic             Coordinates (Angstroms)
 Number     Number       Type             X           Y           Z
 ---------------------------------------------------------------------
      1          5           0        0.000000    0.000000    0.000000
      2          1           0        4.600000    0.000000    0.000000
 ---------------------------------------------------------------------
 Stoichiometry    BH
 Framework group  C*V[C*(HB)]
 Deg. of freedom     1
 Full point group                 C*V     NOp   4
 Largest Abelian subgroup         C2V     NOp   4
 Largest concise Abelian subgroup C1      NOp   1
                         Standard orientation:                         
 ---------------------------------------------------------------------
 Center     Atomic      Atomic             Coordinates (Angstroms)
 Number     Number       Type             X           Y           Z
 ---------------------------------------------------------------------
      1          5           0        0.000000    0.000000    0.766667
      2          1           0        0.000000    0.000000   -3.833333
 ---------------------------------------------------------------------
 Rotational constants (GHZ):           0.0000000          25.8676663          25.8676663
 Leave Link  202 at Sun May 22 18:39:08 2022, MaxMem=   104857600 cpu:               0.0 elap:               0.0
 (Enter /apps/software/g16/l301.exe)
 Standard basis: Aug-CC-pVQZ (5D, 7F)
 Ernie: Thresh=  0.10000D-02 Tol=  0.10000D-05 Strict=F.
 Ernie:  4 primitive shells out of 54 were deleted.
 There are    68 symmetry adapted cartesian basis functions of A1  symmetry.
 There are    18 symmetry adapted cartesian basis functions of A2  symmetry.
 There are    37 symmetry adapted cartesian basis functions of B1  symmetry.
 There are    37 symmetry adapted cartesian basis functions of B2  symmetry.
 There are    50 symmetry adapted basis functions of A1  symmetry.
 There are    16 symmetry adapted basis functions of A2  symmetry.
 There are    30 symmetry adapted basis functions of B1  symmetry.
 There are    30 symmetry adapted basis functions of B2  symmetry.
   126 basis functions,   180 primitive gaussians,   160 cartesian basis functions
     3 alpha electrons        3 beta electrons
       nuclear repulsion energy         0.5751926206 Hartrees.
 IExCor=    0 DFT=F Ex=HF Corr=None ExCW=0 ScaHFX=  1.000000
 ScaDFX=  1.000000  1.000000  1.000000  1.000000 ScalE2=  1.000000  1.000000
 IRadAn=      5 IRanWt=     -1 IRanGd=            0 ICorTp=0 IEmpDi=  4
 NAtoms=    2 NActive=    2 NUniq=    2 SFac= 1.00D+00 NAtFMM=   60 NAOKFM=F Big=F
 Integral buffers will be    131072 words long.
 Raffenetti 2 integral format.
 Two-electron integral symmetry is turned on.
 Leave Link  301 at Sun May 22 18:39:08 2022, MaxMem=   104857600 cpu:               0.1 elap:               0.1
 (Enter /apps/software/g16/l302.exe)
 NPDir=0 NMtPBC=     1 NCelOv=     1 NCel=       1 NClECP=     1 NCelD=      1
         NCelK=      1 NCelE2=     1 NClLst=     1 CellRange=     0.0.
 One-electron integrals computed using PRISM.
 One-electron integral symmetry used in STVInt
 NBasis=   126 RedAO= T EigKep=  1.19D-02  NBF=    50    16    30    30
 NBsUse=   126 1.00D-06 EigRej= -1.00D+00 NBFU=    50    16    30    30
 Leave Link  302 at Sun May 22 18:39:08 2022, MaxMem=   104857600 cpu:               0.1 elap:               0.1
 (Enter /apps/software/g16/l303.exe)
 DipDrv:  MaxL=1.
 Leave Link  303 at Sun May 22 18:39:08 2022, MaxMem=   104857600 cpu:               0.0 elap:               0.0
 (Enter /apps/software/g16/l401.exe)
 Initial guess from the checkpoint file:  "BH-4.6-UCCSD-G.chk"
 B after Tr=     0.000000    0.000000    0.000000
         Rot=    1.000000    0.000000    0.000000    0.000000 Ang=   0.00 deg.
 Guess basis will be translated and rotated to current coordinates.
 JPrj=2 DoOrth=T DoCkMO=T.
 Initial guess orbital symmetries:
 Alpha Orbitals:
       Occupied  (SG) (SG) (SG)
       Virtual   (PI) (PI) (SG) (SG) (SG) (PI) (PI) (SG) (PI) (PI)
                 (DLTA) (DLTA) (SG) (PI) (PI) (SG) (PI) (PI) (SG)
                 (SG) (SG) (PHI) (PHI) (DLTA) (DLTA) (PI) (PI)
                 (SG) (DLTA) (DLTA) (PI) (PI) (SG) (DLTA) (DLTA)
                 (PI) (PI) (SG) (PI) (PI) (SG) (PI) (PI) (SG) (?A)
                 (?A) (PHI) (PHI) (DLTA) (DLTA) (PI) (PI) (SG)
                 (DLTA) (DLTA) (SG) (PHI) (PHI) (PI) (PI) (DLTA)
                 (DLTA) (SG) (PI) (PI) (SG) (PHI) (PHI) (DLTA)
                 (DLTA) (SG) (PI) (PI) (SG) (DLTA) (DLTA) (PI)
                 (PI) (SG) (PI) (PI) (SG) (PI) (PI) (SG) (?A) (?A)
                 (PHI) (PHI) (DLTA) (DLTA) (DLTA) (DLTA) (PI) (PI)
                 (SG) (PI) (PI) (SG) (PHI) (PHI) (DLTA) (DLTA)
                 (PI) (PI) (SG) (PHI) (PHI) (DLTA) (DLTA) (PI)
                 (PI) (SG) (SG) (PI) (PI) (SG) (DLTA) (DLTA) (PI)
                 (PI) (SG) (SG)
 Beta  Orbitals:
       Occupied  (SG) (SG) (SG)
       Virtual   (SG) (PI) (PI) (SG) (SG) (PI) (PI) (SG) (PI) (PI)
                 (DLTA) (DLTA) (SG) (PI) (PI) (SG) (PI) (PI) (SG)
                 (SG) (SG) (PHI) (PHI) (DLTA) (DLTA) (PI) (PI)
                 (PI) (PI) (SG) (DLTA) (DLTA) (SG) (DLTA) (DLTA)
                 (PI) (PI) (SG) (PI) (PI) (SG) (PI) (PI) (SG) (?A)
                 (?A) (PHI) (PHI) (DLTA) (DLTA) (PI) (PI) (SG)
                 (SG) (PI) (PI) (DLTA) (DLTA) (SG) (PHI) (PHI)
                 (DLTA) (DLTA) (PI) (PI) (SG) (PHI) (PHI) (DLTA)
                 (DLTA) (PI) (PI) (SG) (SG) (DLTA) (DLTA) (PI)
                 (PI) (SG) (PI) (PI) (SG) (PI) (PI) (SG) (?A) (?A)
                 (PHI) (PHI) (DLTA) (DLTA) (PI) (PI) (DLTA) (DLTA)
                 (SG) (PI) (PI) (SG) (PHI) (PHI) (DLTA) (DLTA)
                 (PI) (PI) (SG) (PHI) (PHI) (DLTA) (DLTA) (PI)
                 (PI) (SG) (SG) (PI) (PI) (SG) (DLTA) (DLTA) (PI)
                 (PI) (SG) (SG)
 The electronic state of the initial guess is 1-SG.
 Initial guess <Sx>= 0.0000 <Sy>= 0.0000 <Sz>= 0.0000 <S**2>= 1.0105 S= 0.6227
 Leave Link  401 at Sun May 22 18:39:08 2022, MaxMem=   104857600 cpu:               0.1 elap:               0.1
 (Enter /apps/software/g16/l502.exe)
 Keep R1 and R2 ints in memory in symmetry-blocked form, NReq=40143665.
 FoFCou: FMM=F IPFlag=           0 FMFlag=           0 FMFlg1=           0
         NFxFlg=           0 DoJE=F BraDBF=F KetDBF=F FulRan=T
         wScrn=  0.000000 ICntrl=       600 IOpCl=  0 I1Cent=           0 NGrid=           0
         NMat0=    1 NMatS0=   8001 NMatT0=    0 NMatD0=    1 NMtDS0=    0 NMtDT0=    0
 Petite list used in FoFCou.
 UHF open shell SCF:
 Using DIIS extrapolation, IDIIS=  1040.
 NGot=   104857600 LenX=    88563632 LenY=    88537591
 Requested convergence on RMS density matrix=1.00D-08 within 128 cycles.
 Requested convergence on MAX density matrix=1.00D-06.
 Requested convergence on             energy=1.00D-06.
 No special actions if energy rises.
 An orbital has undefined symmetry, so N**3 symmetry is turned off.

 Cycle   1  Pass 1  IDiag  1:
 Density matrix breaks symmetry, PCut= 1.00D-07
 Density matrix has no symmetry -- integrals replicated.
 E= -25.0329512088852    
 DIIS: error= 2.33D-08 at cycle   1 NSaved=   1.
 NSaved= 1 IEnMin= 1 EnMin= -25.0329512088852     IErMin= 1 ErrMin= 2.33D-08
 ErrMax= 2.33D-08  0.00D+00 EMaxC= 1.00D-01 BMatC= 4.29D-14 BMatP= 4.29D-14
 IDIUse=1 WtCom= 1.00D+00 WtEn= 0.00D+00
 Coeff-Com:  0.100D+01
 Coeff:      0.100D+01
 Gap=     0.474 Goal=   None    Shift=    0.000
 Gap=     0.338 Goal=   None    Shift=    0.000
 DSYEVD-2 returned Info=        8254 IAlg= 4 N=   126 NDim=   126 NE2=      702678 trying  DSYEV.
 RMSDP=2.81D-10 MaxDP=8.15D-09              OVMax= 2.54D-08

 Density matrix breaks symmetry, PCut= 1.00D-07
 Density matrix has no symmetry -- integrals replicated.
 SCF Done:  E(UHF) =  -25.0329512089     A.U. after    1 cycles
            NFock=  1  Conv=0.28D-09     -V/T= 2.0000
 <Sx>= 0.0000 <Sy>= 0.0000 <Sz>= 0.0000 <S**2>= 1.0105 S= 0.6227
 <L.S>=  0.00000000000    
 KE= 2.503218488974D+01 PE=-5.905360654124D+01 EE= 8.413277822053D+00
 Annihilation of the first spin contaminant:
 S**2 before annihilation     1.0105,   after     0.0894
 Leave Link  502 at Sun May 22 18:39:12 2022, MaxMem=   104857600 cpu:               3.5 elap:               3.5
 (Enter /apps/software/g16/l801.exe)
 Windowed orbitals will be sorted by symmetry type.
 ExpMin= 1.88D-02 ExpMax= 2.39D+04 ExpMxC= 2.30D+02 IAcc=3 IRadAn=         5 AccDes= 0.00D+00
 HarFok:  IExCor=  205 AccDes= 0.00D+00 IRadAn=         5 IDoV=-2 UseB2=F ITyADJ=14
 ICtDFT= 12500011 ScaDFX=  1.000000  1.000000  1.000000  1.000000
 DSYEVD-2 returned Info=        3401 IAlg= 4 N=    80 NDim=    80 NE2=     1309686 trying  DSYEV.
 Largest valence mixing into a core orbital is  4.07D-04
 Largest core mixing into a valence orbital is  1.57D-04
 Largest valence mixing into a core orbital is  3.10D-04
 Largest core mixing into a valence orbital is  1.07D-04
 Range of M.O.s used for correlation:     2   126
 NBasis=   126 NAE=     3 NBE=     3 NFC=     1 NFV=     0
 NROrb=    125 NOA=     2 NOB=     2 NVA=   123 NVB=   123
 Leave Link  801 at Sun May 22 18:39:12 2022, MaxMem=   104857600 cpu:               0.1 elap:               0.1
 (Enter /apps/software/g16/l804.exe)
 Open-shell transformation, MDV=   104857600 ITran=4 ISComp=1.
 Unit  1 TFree=        991730 TCopy=        422292.
 Semi-Direct transformation.
 ModeAB=           4 MOrb=             2 LenV=     104175076
 LASXX=      1914004 LTotXX=     1914004 LenRXX=     3874879
 LTotAB=     1960875 MaxLAS=     3163250 LenRXY=           0
 NonZer=     5788883 LenScr=     9431040 LnRSAI=     3163250
 LnScr1=     5501440 LExtra=           0 Total=     21970609
 MaxDsk=          -1 SrtSym=           T ITran=            4
 DoSDTr:  NPSUse=  1
 JobTyp=1 Pass  1:  I=   1 to   2.
 (rs|ai) integrals will be sorted in core.
 Complete sort for first half transformation.
 First half transformation complete.
 Complete sort for second half transformation.
 Second half transformation complete.
 ModeAB=           4 MOrb=             2 LenV=     104175076
 LASXX=      1914004 LTotXX=     1914004 LenRXX=     3812878
 LTotAB=     1898874 MaxLAS=     3163250 LenRXY=           0
 NonZer=     5726882 LenScr=     9369600 LnRSAI=     3163250
 LnScr1=     5501440 LExtra=           0 Total=     21847168
 MaxDsk=          -1 SrtSym=           T ITran=            4
 DoSDTr:  NPSUse=  1
 JobTyp=2 Pass  1:  I=   1 to   2.
 (rs|ai) integrals will be sorted in core.
 Complete sort for first half transformation.
 First half transformation complete.
 Complete sort for second half transformation.
 Second half transformation complete.
 SymMOI:  orbitals are not symmetric.
 Spin components of T(2) and E(2):
     alpha-alpha T2 =       0.1457775177D-04 E2=     -0.2049956944D-04
     alpha-beta  T2 =       0.2507300277D-01 E2=     -0.4388503935D-01
     beta-beta   T2 =       0.1672515133D-02 E2=     -0.3427535824D-02
 ANorm=    0.1013291713D+01
 E2 =    -0.4733307475D-01 EUMP2 =    -0.25080284283632D+02
 (S**2,0)=  0.10105D+01           (S**2,1)=  0.10013D+01
 E(PUHF)=      -0.25040627450D+02        E(PMP2)=      -0.25087926957D+02
 Leave Link  804 at Sun May 22 18:39:22 2022, MaxMem=   104857600 cpu:              10.2 elap:              10.2
 (Enter /apps/software/g16/l913.exe)
 CIDS:  MDV=   104857600.
 Frozen-core window:  NFC=   1 NFV=   0.
 IFCWin=0 IBDFC=1 NFBD=     0     0 NFCmp=     0     0 NFFFC=     0     0
 Using original routines for 1st iteration.
 Using DD4UQ or CC4UQ for 2nd and later iterations.
 Keep R2 and R3 ints in memory in symmetry-blocked form, NReq=40147367.
 FoFCou: FMM=F IPFlag=           0 FMFlag=           0 FMFlg1=           0
         NFxFlg=           0 DoJE=F BraDBF=F KetDBF=F FulRan=T
         wScrn=  0.000000 ICntrl=       600 IOpCl=  0 I1Cent=           0 NGrid=           0
         NMat0=    1 NMatS0=   8001 NMatT0=    0 NMatD0=    1 NMtDS0=    0 NMtDT0=    0
 Petite list used in FoFCou.
 CIDS: In Core Option IDoMem=           1.
 Coupled Cluster theory with single and double substitutions
 ===========================================================
 Iterations=  50 Convergence= 0.100D-06
 Produce multiple copies of IABC intergrals
 Iteration Nr.   1
 **********************
 DD1Dir will call FoFMem   1 times, MxPair=        10
 NAB=     4 NAA=     1 NBB=     1.
 E(PMP3)=      -0.25099652801D+02
 MP4(R+Q)=  0.12646203D-02
 Maximum subspace dimension=  5
 A-vector RMS=  1.9015986D-03 Max=  1.5319541D-02 conv= 1.00D-05.
 RLE energy=       -0.0607962308
 E3=       -0.11751363D-01        EUMP3=      -0.25092035647D+02
 E4(DQ)=   -0.40529434D-02        UMP4(DQ)=   -0.25096088590D+02
 E4(SDQ)=  -0.43529073D-02        UMP4(SDQ)=  -0.25096388554D+02
 VARIATIONAL ENERGIES WITH THE FIRST-ORDER WAVEFUNCTION:
 DE(Corr)= -0.57814853E-01 E(Corr)=     -25.090766062    
 NORM(A)=   0.10261416D+01
 Iteration Nr.   2
 **********************
 DD1Dir will call FoFMem   1 times, MxPair=        10
 NAB=     4 NAA=     1 NBB=     1.
 A-vector RMS=  7.0660072D-04 Max=  6.1873563D-03 conv= 1.00D-05.
 RLE energy=       -0.0661890510
 DE(Corr)= -0.63494069E-01 E(CORR)=     -25.096445278     Delta=-5.68D-03
 NORM(A)=   0.10342546D+01
 Iteration Nr.   3
 **********************
 DD1Dir will call FoFMem   1 times, MxPair=        10
 NAB=     4 NAA=     1 NBB=     1.
 A-vector RMS=  2.1958539D-04 Max=  1.0890668D-03 conv= 1.00D-05.
 RLE energy=       -0.0665360424
 DE(Corr)= -0.66175929E-01 E(CORR)=     -25.099127138     Delta=-2.68D-03
 NORM(A)=   0.10356006D+01
 Iteration Nr.   4
 **********************
 DD1Dir will call FoFMem   1 times, MxPair=        10
 NAB=     4 NAA=     1 NBB=     1.
 A-vector RMS=  4.8203904D-05 Max=  2.0861721D-04 conv= 1.00D-05.
 RLE energy=       -0.0666357467
 DE(Corr)= -0.66571255E-01 E(CORR)=     -25.099522464     Delta=-3.95D-04
 NORM(A)=   0.10358392D+01
 Iteration Nr.   5
 **********************
 DD1Dir will call FoFMem   1 times, MxPair=        10
 NAB=     4 NAA=     1 NBB=     1.
 A-vector RMS=  1.7132868D-05 Max=  1.2533334D-04 conv= 1.00D-05.
 RLE energy=       -0.0666152273
 DE(Corr)= -0.66623912E-01 E(CORR)=     -25.099575121     Delta=-5.27D-05
 NORM(A)=   0.10358192D+01
 Iteration Nr.   6
 **********************
 DD1Dir will call FoFMem   1 times, MxPair=        10
 NAB=     4 NAA=     1 NBB=     1.
 A-vector RMS=  5.3868438D-06 Max=  4.7445737D-05 conv= 1.00D-05.
 RLE energy=       -0.0666190949
 DE(Corr)= -0.66617120E-01 E(CORR)=     -25.099568329     Delta= 6.79D-06
 NORM(A)=   0.10358250D+01
 Iteration Nr.   7
 **********************
 DD1Dir will call FoFMem   1 times, MxPair=        10
 NAB=     4 NAA=     1 NBB=     1.
 A-vector RMS=  4.6393029D-06 Max=  3.7407706D-05 conv= 1.00D-05.
 RLE energy=       -0.0666201015
 DE(Corr)= -0.66618424E-01 E(CORR)=     -25.099569632     Delta=-1.30D-06
 NORM(A)=   0.10358274D+01
 Iteration Nr.   8
 **********************
 DD1Dir will call FoFMem   1 times, MxPair=        10
 NAB=     4 NAA=     1 NBB=     1.
 A-vector RMS=  1.4731904D-06 Max=  3.4676907D-05 conv= 1.00D-05.
 RLE energy=       -0.0666199812
 DE(Corr)= -0.66619061E-01 E(CORR)=     -25.099570270     Delta=-6.37D-07
 NORM(A)=   0.10358301D+01
 Iteration Nr.   9
 **********************
 DD1Dir will call FoFMem   1 times, MxPair=        10
 NAB=     4 NAA=     1 NBB=     1.
 A-vector RMS=  2.3009916D-06 Max=  3.0066528D-05 conv= 1.00D-05.
 RLE energy=       -0.0666203255
 DE(Corr)= -0.66619668E-01 E(CORR)=     -25.099570877     Delta=-6.07D-07
 NORM(A)=   0.10358322D+01
 Iteration Nr.  10
 **********************
 DD1Dir will call FoFMem   1 times, MxPair=        10
 NAB=     4 NAA=     1 NBB=     1.
 A-vector RMS=  2.3292931D-06 Max=  2.1651531D-05 conv= 1.00D-05.
 RLE energy=       -0.0666187757
 DE(Corr)= -0.66619725E-01 E(CORR)=     -25.099570934     Delta=-5.71D-08
 NORM(A)=   0.10358307D+01
 Iteration Nr.  11
 **********************
 DD1Dir will call FoFMem   1 times, MxPair=        10
 NAB=     4 NAA=     1 NBB=     1.
 A-vector RMS=  3.7269993D-06 Max=  2.8944067D-05 conv= 1.00D-05.
 RLE energy=       -0.0666182287
 DE(Corr)= -0.66618983E-01 E(CORR)=     -25.099570192     Delta= 7.42D-07
 NORM(A)=   0.10358293D+01
 Iteration Nr.  12
 **********************
 DD1Dir will call FoFMem   1 times, MxPair=        10
 NAB=     4 NAA=     1 NBB=     1.
 A-vector RMS=  1.8618588D-06 Max=  1.2711989D-05 conv= 1.00D-05.
 RLE energy=       -0.0666183227
 DE(Corr)= -0.66618372E-01 E(CORR)=     -25.099569581     Delta= 6.12D-07
 NORM(A)=   0.10358296D+01
 Iteration Nr.  13
 **********************
 DD1Dir will call FoFMem   1 times, MxPair=        10
 NAB=     4 NAA=     1 NBB=     1.
 A-vector RMS=  7.6538553D-07 Max=  6.0322760D-06 conv= 1.00D-05.
 RLE energy=       -0.0666184199
 DE(Corr)= -0.66618362E-01 E(CORR)=     -25.099569571     Delta= 9.96D-09
 NORM(A)=   0.10358300D+01
 CI/CC converged in   13 iterations to DelEn= 9.96D-09 Conv= 1.00D-07 ErrA1= 7.65D-07 Conv= 1.00D-05
 Wavefunction amplitudes converged. E(Corr)=     -25.099569571    
 Largest amplitude= 7.09D-02

 S**2, projected HF & approx projected MPn energies after annihilation of
 unwanted spin states (see manual for definitions):

 spins       (S**2,0) (S**2,1)    PUHF        PMP2        PMP3        PMP4
 annihilated
 s+1        -0.04572 -0.00892  -25.040627  -25.087927  -25.099653
 s+1,s+2     0.00000  0.00000  -25.035557  -25.082886  -25.094634

 Discarding MO integrals.
 Leave Link  913 at Sun May 22 18:39:30 2022, MaxMem=   104857600 cpu:               8.0 elap:               8.0
 (Enter /apps/software/g16/l601.exe)
 Copying SCF densities to generalized density rwf, IOpCl= 1 IROHF=0.
 SCF density gives NOpUse=  1 NOpAll=  4.
 Marking SCF density as not fully symmetric.

 **********************************************************************

            Population analysis using the SCF density.

 **********************************************************************

 Orbital symmetries:
 Alpha Orbitals:
       Occupied  (SG) (SG) (SG)
       Virtual   (PI) (PI) (SG) (SG) (SG) (PI) (PI) (SG) (PI) (PI)
                 (DLTA) (DLTA) (SG) (PI) (PI) (SG) (PI) (PI) (SG)
                 (SG) (SG) (PHI) (PHI) (DLTA) (DLTA) (PI) (PI)
                 (SG) (DLTA) (DLTA) (PI) (PI) (SG) (DLTA) (DLTA)
                 (PI) (PI) (SG) (PI) (PI) (SG) (PI) (PI) (SG) (?A)
                 (?A) (PHI) (PHI) (DLTA) (DLTA) (PI) (PI) (SG)
                 (DLTA) (DLTA) (SG) (PHI) (PHI) (PI) (PI) (DLTA)
                 (DLTA) (SG) (PI) (PI) (SG) (PHI) (PHI) (DLTA)
                 (DLTA) (SG) (PI) (PI) (SG) (DLTA) (DLTA) (PI)
                 (PI) (SG) (PI) (PI) (SG) (PI) (PI) (SG) (?A) (?A)
                 (PHI) (PHI) (DLTA) (DLTA) (DLTA) (DLTA) (PI) (PI)
                 (SG) (PI) (PI) (SG) (PHI) (PHI) (DLTA) (DLTA)
                 (PI) (PI) (SG) (PHI) (PHI) (DLTA) (DLTA) (PI)
                 (PI) (SG) (SG) (PI) (PI) (SG) (DLTA) (DLTA) (PI)
                 (PI) (SG) (SG)
 Beta  Orbitals:
       Occupied  (SG) (SG) (SG)
       Virtual   (SG) (PI) (PI) (SG) (SG) (PI) (PI) (SG) (PI) (PI)
                 (DLTA) (DLTA) (SG) (PI) (PI) (SG) (PI) (PI) (SG)
                 (SG) (SG) (PHI) (PHI) (DLTA) (DLTA) (PI) (PI)
                 (PI) (PI) (SG) (DLTA) (DLTA) (SG) (DLTA) (DLTA)
                 (PI) (PI) (SG) (PI) (PI) (SG) (PI) (PI) (SG) (?A)
                 (?A) (PHI) (PHI) (DLTA) (DLTA) (PI) (PI) (SG)
                 (SG) (PI) (PI) (DLTA) (DLTA) (SG) (PHI) (PHI)
                 (DLTA) (DLTA) (PI) (PI) (SG) (PHI) (PHI) (DLTA)
                 (DLTA) (PI) (PI) (SG) (SG) (DLTA) (DLTA) (PI)
                 (PI) (SG) (PI) (PI) (SG) (PI) (PI) (SG) (?A) (?A)
                 (PHI) (PHI) (DLTA) (DLTA) (PI) (PI) (DLTA) (DLTA)
                 (SG) (PI) (PI) (SG) (PHI) (PHI) (DLTA) (DLTA)
                 (PI) (PI) (SG) (PHI) (PHI) (DLTA) (DLTA) (PI)
                 (PI) (SG) (SG) (PI) (PI) (SG) (DLTA) (DLTA) (PI)
                 (PI) (SG) (SG)
 The electronic state is 1-SG.
 Alpha  occ. eigenvalues --   -7.68649  -0.49615  -0.44637
 Alpha virt. eigenvalues --    0.02729   0.02729   0.04359   0.05161   0.07538
 Alpha virt. eigenvalues --    0.08423   0.08423   0.11684   0.14207   0.14207
 Alpha virt. eigenvalues --    0.14568   0.14568   0.16879   0.20029   0.20029
 Alpha virt. eigenvalues --    0.25375   0.31980   0.31980   0.34317   0.36059
 Alpha virt. eigenvalues --    0.39578   0.46174   0.46174   0.47028   0.47028
 Alpha virt. eigenvalues --    0.47127   0.47127   0.49887   0.50137   0.50137
 Alpha virt. eigenvalues --    0.52666   0.52666   0.57157   0.61851   0.61851
 Alpha virt. eigenvalues --    0.65094   0.65094   0.70143   0.76306   0.76306
 Alpha virt. eigenvalues --    0.85506   1.06052   1.06052   1.13302   1.36966
 Alpha virt. eigenvalues --    1.36966   1.38437   1.38437   1.39480   1.39480
 Alpha virt. eigenvalues --    1.40193   1.40193   1.40753   1.41589   1.41589
 Alpha virt. eigenvalues --    1.42674   1.43969   1.43969   1.45550   1.45550
 Alpha virt. eigenvalues --    1.46312   1.46312   1.46656   1.47943   1.47943
 Alpha virt. eigenvalues --    1.52346   1.56204   1.56204   1.56391   1.56391
 Alpha virt. eigenvalues --    1.57904   1.58042   1.58042   1.66879   2.45206
 Alpha virt. eigenvalues --    2.45206   2.46533   2.46533   2.49569   2.56085
 Alpha virt. eigenvalues --    2.56085   2.63655   3.74451   3.74451   3.80887
 Alpha virt. eigenvalues --    3.92025   3.92025   3.94557   3.94557   3.96041
 Alpha virt. eigenvalues --    3.96041   3.96488   3.96488   3.97550   3.97550
 Alpha virt. eigenvalues --    3.98709   4.00316   4.00316   4.02655   4.08865
 Alpha virt. eigenvalues --    4.08865   4.12142   4.12142   4.14756   4.14756
 Alpha virt. eigenvalues --    4.18785   6.55475   6.55475   6.55509   6.55509
 Alpha virt. eigenvalues --    6.55721   6.55721   6.56198   7.41651   7.93778
 Alpha virt. eigenvalues --    7.93778   7.98030   8.39077   8.39077   8.39909
 Alpha virt. eigenvalues --    8.39909   8.43100  13.05907
  Beta  occ. eigenvalues --   -7.70162  -0.54540  -0.31884
  Beta virt. eigenvalues --    0.01889   0.02359   0.02359   0.05058   0.07422
  Beta virt. eigenvalues --    0.07724   0.07724   0.10906   0.14245   0.14245
  Beta virt. eigenvalues --    0.14561   0.14561   0.17313   0.21512   0.21512
  Beta virt. eigenvalues --    0.24198   0.31164   0.31164   0.31552   0.34228
  Beta virt. eigenvalues --    0.45288   0.46182   0.46182   0.46635   0.46635
  Beta virt. eigenvalues --    0.46664   0.46664   0.49648   0.49648   0.49721
  Beta virt. eigenvalues --    0.50030   0.50030   0.55330   0.63178   0.63178
  Beta virt. eigenvalues --    0.66374   0.66374   0.71978   0.82758   0.82758
  Beta virt. eigenvalues --    0.90080   1.05123   1.05123   1.06441   1.36994
  Beta virt. eigenvalues --    1.36994   1.37921   1.37921   1.38585   1.38585
  Beta virt. eigenvalues --    1.39095   1.39095   1.39137   1.39778   1.40671
  Beta virt. eigenvalues --    1.40671   1.41101   1.41101   1.42192   1.43904
  Beta virt. eigenvalues --    1.43904   1.44702   1.44702   1.45574   1.45574
  Beta virt. eigenvalues --    1.49781   1.57462   1.57462   1.57630   1.57630
  Beta virt. eigenvalues --    1.58999   1.58999   1.61627   1.74119   2.49153
  Beta virt. eigenvalues --    2.49153   2.50486   2.50486   2.53874   2.63507
  Beta virt. eigenvalues --    2.63507   2.70375   3.73738   3.73738   3.76071
  Beta virt. eigenvalues --    3.91956   3.91956   3.93468   3.93468   3.94550
  Beta virt. eigenvalues --    3.94550   3.95300   3.95300   3.95595   3.95595
  Beta virt. eigenvalues --    3.96244   3.96616   3.96616   3.97929   4.08597
  Beta virt. eigenvalues --    4.08597   4.09999   4.09999   4.11427   4.11427
  Beta virt. eigenvalues --    4.14967   6.58360   6.58360   6.58393   6.58393
  Beta virt. eigenvalues --    6.58602   6.58602   6.59077   7.49815   7.99570
  Beta virt. eigenvalues --    7.99570   8.03772   8.43300   8.43300   8.44126
  Beta virt. eigenvalues --    8.44126   8.47302  13.04732
          Condensed to atoms (all electrons):
               1          2
     1  B    5.000049  -0.000330
     2  H   -0.000330   1.000611
          Atomic-Atomic Spin Densities.
               1          2
     1  B   -1.000226  -0.000176
     2  H   -0.000176   1.000578
 Mulliken charges and spin densities:
               1          2
     1  B    0.000281  -1.000402
     2  H   -0.000281   1.000402
 Sum of Mulliken charges =  -0.00000   0.00000
 Mulliken charges and spin densities with hydrogens summed into heavy atoms:
               1          2
     1  B   -0.000000   0.000000
 Electronic spatial extent (au):  <R**2>=             81.8418
 Charge=             -0.0000 electrons
 Dipole moment (field-independent basis, Debye):
    X=              0.0000    Y=             -0.0000    Z=              0.0195  Tot=              0.0195
 Quadrupole moment (field-independent basis, Debye-Ang):
   XX=             -7.3068   YY=             -7.3068   ZZ=            -10.7699
   XY=             -0.0000   XZ=              0.0000   YZ=             -0.0008
 Traceless Quadrupole moment (field-independent basis, Debye-Ang):
   XX=              1.1543   YY=              1.1543   ZZ=             -2.3087
   XY=             -0.0000   XZ=              0.0000   YZ=             -0.0008
 Octapole moment (field-independent basis, Debye-Ang**2):
  XXX=              0.0000  YYY=             -0.0000  ZZZ=             -5.2722  XYY=              0.0000
  XXY=             -0.0000  XXZ=              0.6127  XZZ=              0.0000  YZZ=             -0.0013
  YYZ=              0.6127  XYZ=              0.0000
 Hexadecapole moment (field-independent basis, Debye-Ang**3):
 XXXX=            -10.7346 YYYY=            -10.7346 ZZZZ=           -176.3185 XXXY=              0.0000
 XXXZ=              0.0000 YYYX=              0.0000 YYYZ=             -0.0012 ZZZX=             -0.0000
 ZZZY=             -0.0025 XXYY=             -3.5782 XXZZ=            -28.6989 YYZZ=            -28.6989
 XXYZ=             -0.0004 YYXZ=              0.0000 ZZXY=             -0.0000
 N-N= 5.751926205652D-01 E-N=-5.905360653593D+01  KE= 2.503218488974D+01
 Leave Link  601 at Sun May 22 18:39:30 2022, MaxMem=   104857600 cpu:               0.0 elap:               0.1
 (Enter /apps/software/g16/l9999.exe)
 1\1\GINC-CNODE13\SP\UCCSD-FC\Aug-CC-pVQZ\B1H1\LCZ\22-May-2022\0\\#p UH
 F/aug-cc-pVQZ guess=read CCSD=FC\\BH UCCSD at 4.6 Angstrom\\0,1\B,0,0.
 ,0.,0.\H,0,4.6,0.,0.\\Version=ES64L-G16RevA.03\State=1-SG\HF=-25.03295
 12\MP2=-25.0802843\MP3=-25.0920356\MP4D=-25.0973532\MP4DQ=-25.0960886\
 PUHF=-25.0406275\PMP2-0=-25.087927\PMP3-0=-25.0996528\MP4SDQ=-25.09638
 86\CCSD=-25.0995696\S2=1.010517\S2-1=1.001279\S2A=0.0894\RMSD=2.809e-1
 0\PG=C*V [C*(H1B1)]\\@


 THE REAL VOYAGE OF DISCOVERY CONSISTS NOT IN SEEKING NEW LANDSCAPES 
 BUT IN HAVING NEW EYES.
                                                    -- MARCEL PROUST
 Job cpu time:       0 days  0 hours  0 minutes 22.4 seconds.
 Elapsed time:       0 days  0 hours  0 minutes 22.5 seconds.
 File lengths (MBytes):  RWF=    357 Int=      0 D2E=      0 Chk=     67 Scr=      1
 Normal termination of Gaussian 16 at Sun May 22 18:39:31 2022.

Sender: Unischeduler System <lcz@mgt01>
Subject: Job 134228: <#!/bin/bash
#BSUB -J intel
#BSUB -o BH-4.6-UCCSD-G.out
#BSUB -n 8
#BSUB -q cqueue
#BSUB -R span[hosts=1]
export g16root=/apps/software
source /apps/software/g16/bsd/g16.profile
export GAUSS_SCRDIR=/scratch
/apps/software/g16/g16 < BH-4.6-UCCSD-G.inp > BH-4.6-UCCSD-G.out> Done

Job <#!/bin/bash
#BSUB -J intel
#BSUB -o BH-4.6-UCCSD-G.out
#BSUB -n 8
#BSUB -q cqueue
#BSUB -R span[hosts=1]
export g16root=/apps/software
source /apps/software/g16/bsd/g16.profile
export GAUSS_SCRDIR=/scratch
/apps/software/g16/g16 < BH-4.6-UCCSD-G.inp > BH-4.6-UCCSD-G.out> was submitted from host <mgt01> by user <lcz>.
Job was executed on host(s) <8*cnode13>, in queue <cqueue>, as user <lcz>.
</apps/users/lcz> was used as the home directory.
</apps/users/lcz/exe13/UCCSD> was used as the working directory.
Started at 2022-05-22 18:39:08
Results reported at 2022-05-22 18:39:31

Your job looked like:

------------------------------------------------------------
# User input
#!/bin/bash
#BSUB -J intel
#BSUB -o BH-4.6-UCCSD-G.out
#BSUB -n 8
#BSUB -q cqueue
#BSUB -R span[hosts=1]
export g16root=/apps/software
source /apps/software/g16/bsd/g16.profile
export GAUSS_SCRDIR=/scratch
/apps/software/g16/g16 < BH-4.6-UCCSD-G.inp > BH-4.6-UCCSD-G.out
------------------------------------------------------------

Successfully completed.

Resource usage summary:

    CPU time   :           21.27 sec.
    Max Memory :               499 MB
    Max Processes  :               5


The output (if any) follows:

