 Entering Gaussian System, Link 0=/apps/software/g16/g16
 Initial command:
 /apps/software/g16/l1.exe "/scratch/Gau-404663.inp" -scrdir="/scratch/"
 Entering Link 1 = /apps/software/g16/l1.exe PID=    404664.
  
 Copyright (c) 1988,1990,1992,1993,1995,1998,2003,2009,2016,
            Gaussian, Inc.  All Rights Reserved.
  
 This is part of the Gaussian(R) 16 program.  It is based on
 the Gaussian(R) 09 system (copyright 2009, Gaussian, Inc.),
 the Gaussian(R) 03 system (copyright 2003, Gaussian, Inc.),
 the Gaussian(R) 98 system (copyright 1998, Gaussian, Inc.),
 the Gaussian(R) 94 system (copyright 1995, Gaussian, Inc.),
 the Gaussian 92(TM) system (copyright 1992, Gaussian, Inc.),
 the Gaussian 90(TM) system (copyright 1990, Gaussian, Inc.),
 the Gaussian 88(TM) system (copyright 1988, Gaussian, Inc.),
 the Gaussian 86(TM) system (copyright 1986, Carnegie Mellon
 University), and the Gaussian 82(TM) system (copyright 1983,
 Carnegie Mellon University). Gaussian is a federally registered
 trademark of Gaussian, Inc.
  
 This software contains proprietary and confidential information,
 including trade secrets, belonging to Gaussian, Inc.
  
 This software is provided under written license and may be
 used, copied, transmitted, or stored only in accord with that
 written license.
  
 The following legend is applicable only to US Government
 contracts under FAR:
  
                    RESTRICTED RIGHTS LEGEND
  
 Use, reproduction and disclosure by the US Government is
 subject to restrictions as set forth in subparagraphs (a)
 and (c) of the Commercial Computer Software - Restricted
 Rights clause in FAR 52.227-19.
  
 Gaussian, Inc.
 340 Quinnipiac St., Bldg. 40, Wallingford CT 06492
  
  
 ---------------------------------------------------------------
 Warning -- This program may not be used in any manner that
 competes with the business of Gaussian, Inc. or will provide
 assistance to any competitor of Gaussian, Inc.  The licensee
 of this program is prohibited from giving any competitor of
 Gaussian, Inc. access to this program.  By using this program,
 the user acknowledges that Gaussian, Inc. is engaged in the
 business of creating and licensing software in the field of
 computational chemistry and represents and warrants to the
 licensee that it is not a competitor of Gaussian, Inc. and that
 it will not use this program in any manner prohibited above.
 ---------------------------------------------------------------
  

 Cite this work as:
 Gaussian 16, Revision A.03,
 M. J. Frisch, G. W. Trucks, H. B. Schlegel, G. E. Scuseria, 
 M. A. Robb, J. R. Cheeseman, G. Scalmani, V. Barone, 
 G. A. Petersson, H. Nakatsuji, X. Li, M. Caricato, A. V. Marenich, 
 J. Bloino, B. G. Janesko, R. Gomperts, B. Mennucci, H. P. Hratchian, 
 J. V. Ortiz, A. F. Izmaylov, J. L. Sonnenberg, D. Williams-Young, 
 F. Ding, F. Lipparini, F. Egidi, J. Goings, B. Peng, A. Petrone, 
 T. Henderson, D. Ranasinghe, V. G. Zakrzewski, J. Gao, N. Rega, 
 G. Zheng, W. Liang, M. Hada, M. Ehara, K. Toyota, R. Fukuda, 
 J. Hasegawa, M. Ishida, T. Nakajima, Y. Honda, O. Kitao, H. Nakai, 
 T. Vreven, K. Throssell, J. A. Montgomery, Jr., J. E. Peralta, 
 F. Ogliaro, M. J. Bearpark, J. J. Heyd, E. N. Brothers, K. N. Kudin, 
 V. N. Staroverov, T. A. Keith, R. Kobayashi, J. Normand, 
 K. Raghavachari, A. P. Rendell, J. C. Burant, S. S. Iyengar, 
 J. Tomasi, M. Cossi, J. M. Millam, M. Klene, C. Adamo, R. Cammi, 
 J. W. Ochterski, R. L. Martin, K. Morokuma, O. Farkas, 
 J. B. Foresman, and D. J. Fox, Gaussian, Inc., Wallingford CT, 2016.
 
 ******************************************
 Gaussian 16:  ES64L-G16RevA.03 25-Dec-2016
                22-May-2022 
 ******************************************
 %oldchk=BH-4.2-UHF-G.chk
 %chk=BH-4.2-UCCSD-G.chk
 Copying data from "BH-4.2-UHF-G.chk" to current chk file "BH-4.2-UCCSD-G.chk"
 IOpt=  2 FromEx=T IUOpen= 4 IOptOp= 5 NList=   0 IFRang= 0 IUIn= 4 IUOut= 2.
 -------------------------------------
 #p UHF/aug-cc-pVQZ guess=read CCSD=FC
 -------------------------------------
 1/38=1,172=1/1;
 2/12=2,17=6,18=5,40=1/2;
 3/5=16,6=2,7=10,11=2,25=1,30=1,116=2/1,2,3;
 4/5=1/1;
 5/5=2,38=6/2;
 8/6=4,9=120000,10=1/1,4;
 9/5=7/13;
 6/7=2,8=2,9=2,10=2/1;
 99/5=1,9=1/99;
 Leave Link    1 at Sun May 22 18:39:04 2022, MaxMem=   104857600 cpu:               0.0 elap:               0.0
 (Enter /apps/software/g16/l101.exe)
 ------------------------
 BH UCCSD at 4.2 Angstrom
 ------------------------
 Symbolic Z-matrix:
 Charge =  0 Multiplicity = 1
 B                     0.        0.        0. 
 H                     4.2       0.        0. 
 
 ITRead=  0  0
 MicOpt= -1 -1
 NAtoms=      2 NQM=        2 NQMF=       0 NMMI=      0 NMMIF=      0
                NMic=       0 NMicF=      0.
                    Isotopes and Nuclear Properties:
 (Nuclear quadrupole moments (NQMom) in fm**2, nuclear magnetic moments (NMagM)
  in nuclear magnetons)

  Atom         1           2
 IAtWgt=          11           1
 AtmWgt=  11.0093053   1.0078250
 NucSpn=           3           1
 AtZEff=  -0.0000000  -0.0000000
 NQMom=    4.0590000   0.0000000
 NMagM=    2.6886370   2.7928460
 AtZNuc=   5.0000000   1.0000000
 Leave Link  101 at Sun May 22 18:39:04 2022, MaxMem=   104857600 cpu:               0.1 elap:               0.1
 (Enter /apps/software/g16/l202.exe)
                          Input orientation:                          
 ---------------------------------------------------------------------
 Center     Atomic      Atomic             Coordinates (Angstroms)
 Number     Number       Type             X           Y           Z
 ---------------------------------------------------------------------
      1          5           0        0.000000    0.000000    0.000000
      2          1           0        4.200000    0.000000    0.000000
 ---------------------------------------------------------------------
 Stoichiometry    BH
 Framework group  C*V[C*(HB)]
 Deg. of freedom     1
 Full point group                 C*V     NOp   4
 Largest Abelian subgroup         C2V     NOp   4
 Largest concise Abelian subgroup C1      NOp   1
                         Standard orientation:                         
 ---------------------------------------------------------------------
 Center     Atomic      Atomic             Coordinates (Angstroms)
 Number     Number       Type             X           Y           Z
 ---------------------------------------------------------------------
      1          5           0        0.000000    0.000000    0.700000
      2          1           0        0.000000    0.000000   -3.500000
 ---------------------------------------------------------------------
 Rotational constants (GHZ):           0.0000000          31.0294682          31.0294682
 Leave Link  202 at Sun May 22 18:39:04 2022, MaxMem=   104857600 cpu:               0.0 elap:               0.0
 (Enter /apps/software/g16/l301.exe)
 Standard basis: Aug-CC-pVQZ (5D, 7F)
 Ernie: Thresh=  0.10000D-02 Tol=  0.10000D-05 Strict=F.
 Ernie:  4 primitive shells out of 54 were deleted.
 There are    68 symmetry adapted cartesian basis functions of A1  symmetry.
 There are    18 symmetry adapted cartesian basis functions of A2  symmetry.
 There are    37 symmetry adapted cartesian basis functions of B1  symmetry.
 There are    37 symmetry adapted cartesian basis functions of B2  symmetry.
 There are    50 symmetry adapted basis functions of A1  symmetry.
 There are    16 symmetry adapted basis functions of A2  symmetry.
 There are    30 symmetry adapted basis functions of B1  symmetry.
 There are    30 symmetry adapted basis functions of B2  symmetry.
   126 basis functions,   180 primitive gaussians,   160 cartesian basis functions
     3 alpha electrons        3 beta electrons
       nuclear repulsion energy         0.6299728701 Hartrees.
 IExCor=    0 DFT=F Ex=HF Corr=None ExCW=0 ScaHFX=  1.000000
 ScaDFX=  1.000000  1.000000  1.000000  1.000000 ScalE2=  1.000000  1.000000
 IRadAn=      5 IRanWt=     -1 IRanGd=            0 ICorTp=0 IEmpDi=  4
 NAtoms=    2 NActive=    2 NUniq=    2 SFac= 1.00D+00 NAtFMM=   60 NAOKFM=F Big=F
 Integral buffers will be    131072 words long.
 Raffenetti 2 integral format.
 Two-electron integral symmetry is turned on.
 Leave Link  301 at Sun May 22 18:39:04 2022, MaxMem=   104857600 cpu:               0.1 elap:               0.1
 (Enter /apps/software/g16/l302.exe)
 NPDir=0 NMtPBC=     1 NCelOv=     1 NCel=       1 NClECP=     1 NCelD=      1
         NCelK=      1 NCelE2=     1 NClLst=     1 CellRange=     0.0.
 One-electron integrals computed using PRISM.
 One-electron integral symmetry used in STVInt
 NBasis=   126 RedAO= T EigKep=  1.15D-02  NBF=    50    16    30    30
 NBsUse=   126 1.00D-06 EigRej= -1.00D+00 NBFU=    50    16    30    30
 Leave Link  302 at Sun May 22 18:39:04 2022, MaxMem=   104857600 cpu:               0.1 elap:               0.1
 (Enter /apps/software/g16/l303.exe)
 DipDrv:  MaxL=1.
 Leave Link  303 at Sun May 22 18:39:04 2022, MaxMem=   104857600 cpu:               0.0 elap:               0.0
 (Enter /apps/software/g16/l401.exe)
 Initial guess from the checkpoint file:  "BH-4.2-UCCSD-G.chk"
 B after Tr=     0.000000    0.000000    0.000000
         Rot=    1.000000    0.000000    0.000000    0.000000 Ang=   0.00 deg.
 Guess basis will be translated and rotated to current coordinates.
 JPrj=2 DoOrth=T DoCkMO=T.
 Initial guess orbital symmetries:
 Alpha Orbitals:
       Occupied  (SG) (SG) (SG)
       Virtual   (PI) (PI) (SG) (SG) (SG) (PI) (PI) (SG) (PI) (PI)
                 (DLTA) (DLTA) (SG) (PI) (PI) (SG) (PI) (PI) (SG)
                 (SG) (SG) (PHI) (PHI) (DLTA) (DLTA) (PI) (PI)
                 (DLTA) (DLTA) (SG) (PI) (PI) (SG) (DLTA) (DLTA)
                 (PI) (PI) (SG) (PI) (PI) (SG) (PI) (PI) (SG) (?A)
                 (?A) (PHI) (PHI) (DLTA) (DLTA) (PI) (PI) (SG)
                 (DLTA) (DLTA) (SG) (PHI) (PHI) (PI) (PI) (DLTA)
                 (DLTA) (SG) (PI) (PI) (SG) (PHI) (PHI) (DLTA)
                 (DLTA) (SG) (PI) (PI) (SG) (DLTA) (DLTA) (PI)
                 (PI) (SG) (PI) (PI) (SG) (PI) (PI) (SG) (?A) (?A)
                 (PHI) (PHI) (DLTA) (DLTA) (DLTA) (DLTA) (PI) (PI)
                 (SG) (PI) (PI) (SG) (PHI) (PHI) (DLTA) (DLTA)
                 (PI) (PI) (SG) (PHI) (PHI) (DLTA) (DLTA) (PI)
                 (PI) (SG) (SG) (PI) (PI) (SG) (DLTA) (DLTA) (PI)
                 (PI) (SG) (SG)
 Beta  Orbitals:
       Occupied  (SG) (SG) (SG)
       Virtual   (SG) (PI) (PI) (SG) (SG) (PI) (PI) (SG) (PI) (PI)
                 (DLTA) (DLTA) (SG) (PI) (PI) (SG) (PI) (PI) (SG)
                 (SG) (SG) (PHI) (PHI) (DLTA) (DLTA) (PI) (PI)
                 (PI) (PI) (SG) (DLTA) (DLTA) (SG) (DLTA) (DLTA)
                 (PI) (PI) (SG) (PI) (PI) (SG) (PI) (PI) (SG) (?A)
                 (?A) (PHI) (PHI) (DLTA) (DLTA) (SG) (PI) (PI)
                 (SG) (PI) (PI) (DLTA) (DLTA) (SG) (PHI) (PHI)
                 (DLTA) (DLTA) (PI) (PI) (SG) (PHI) (PHI) (DLTA)
                 (DLTA) (PI) (PI) (SG) (SG) (DLTA) (DLTA) (PI)
                 (PI) (SG) (PI) (PI) (SG) (PI) (PI) (SG) (?A) (?A)
                 (PHI) (PHI) (DLTA) (DLTA) (DLTA) (DLTA) (PI) (PI)
                 (PI) (PI) (SG) (SG) (PHI) (PHI) (DLTA) (DLTA)
                 (PI) (PI) (SG) (PHI) (PHI) (DLTA) (DLTA) (PI)
                 (PI) (SG) (SG) (PI) (PI) (SG) (DLTA) (DLTA) (PI)
                 (PI) (SG) (SG)
 The electronic state of the initial guess is 1-SG.
 Initial guess <Sx>= 0.0000 <Sy>= 0.0000 <Sz>= 0.0000 <S**2>= 1.0091 S= 0.6221
 Leave Link  401 at Sun May 22 18:39:04 2022, MaxMem=   104857600 cpu:               0.1 elap:               0.1
 (Enter /apps/software/g16/l502.exe)
 Keep R1 and R2 ints in memory in symmetry-blocked form, NReq=40143665.
 FoFCou: FMM=F IPFlag=           0 FMFlag=           0 FMFlg1=           0
         NFxFlg=           0 DoJE=F BraDBF=F KetDBF=F FulRan=T
         wScrn=  0.000000 ICntrl=       600 IOpCl=  0 I1Cent=           0 NGrid=           0
         NMat0=    1 NMatS0=   8001 NMatT0=    0 NMatD0=    1 NMtDS0=    0 NMtDT0=    0
 Petite list used in FoFCou.
 UHF open shell SCF:
 Using DIIS extrapolation, IDIIS=  1040.
 NGot=   104857600 LenX=    88563632 LenY=    88537591
 Requested convergence on RMS density matrix=1.00D-08 within 128 cycles.
 Requested convergence on MAX density matrix=1.00D-06.
 Requested convergence on             energy=1.00D-06.
 No special actions if energy rises.

 Cycle   1  Pass 1  IDiag  1:
 E= -25.0329807477693    
 DIIS: error= 3.24D-08 at cycle   1 NSaved=   1.
 NSaved= 1 IEnMin= 1 EnMin= -25.0329807477693     IErMin= 1 ErrMin= 3.24D-08
 ErrMax= 3.24D-08  0.00D+00 EMaxC= 1.00D-01 BMatC= 1.33D-13 BMatP= 1.33D-13
 IDIUse=1 WtCom= 1.00D+00 WtEn= 0.00D+00
 Coeff-Com:  0.100D+01
 Coeff:      0.100D+01
 Gap=     0.474 Goal=   None    Shift=    0.000
 Gap=     0.339 Goal=   None    Shift=    0.000
 RMSDP=3.87D-10 MaxDP=2.32D-08              OVMax= 2.79D-08

 SCF Done:  E(UHF) =  -25.0329807478     A.U. after    1 cycles
            NFock=  1  Conv=0.39D-09     -V/T= 2.0000
 <Sx>= 0.0000 <Sy>= 0.0000 <Sz>= 0.0000 <S**2>= 1.0091 S= 0.6221
 <L.S>=  0.00000000000    
 KE= 2.503191741784D+01 PE=-5.916334089333D+01 EE= 8.468469857576D+00
 Annihilation of the first spin contaminant:
 S**2 before annihilation     1.0091,   after     0.0890
 Leave Link  502 at Sun May 22 18:39:08 2022, MaxMem=   104857600 cpu:               3.5 elap:               3.5
 (Enter /apps/software/g16/l801.exe)
 Windowed orbitals will be sorted by symmetry type.
 ExpMin= 1.88D-02 ExpMax= 2.39D+04 ExpMxC= 2.30D+02 IAcc=3 IRadAn=         5 AccDes= 0.00D+00
 HarFok:  IExCor=  205 AccDes= 0.00D+00 IRadAn=         5 IDoV=-2 UseB2=F ITyADJ=14
 ICtDFT= 12500011 ScaDFX=  1.000000  1.000000  1.000000  1.000000
 Largest valence mixing into a core orbital is  4.07D-04
 Largest core mixing into a valence orbital is  1.57D-04
 Largest valence mixing into a core orbital is  3.10D-04
 Largest core mixing into a valence orbital is  1.07D-04
 Range of M.O.s used for correlation:     2   126
 NBasis=   126 NAE=     3 NBE=     3 NFC=     1 NFV=     0
 NROrb=    125 NOA=     2 NOB=     2 NVA=   123 NVB=   123
 Leave Link  801 at Sun May 22 18:39:08 2022, MaxMem=   104857600 cpu:               0.1 elap:               0.1
 (Enter /apps/software/g16/l804.exe)
 Open-shell transformation, MDV=   104857600 ITran=4 ISComp=2.
 Unit  1 TFree=        991730 TCopy=        422292.
 Semi-Direct transformation.
 ModeAB=           2 MOrb=             2 LenV=     104171697
 LASXX=       493564 LTotXX=      493564 LenRXX=      493564
 LTotAB=      510115 MaxLAS=     3220000 LenRXY=     3220000
 NonZer=     3274500 LenScr=     5611520 LnRSAI=           0
 LnScr1=           0 LExtra=           0 Total=      9325084
 MaxDsk=          -1 SrtSym=           F ITran=            4
 DoSDTr:  NPSUse=  1
 JobTyp=1 Pass  1:  I=   1 to   2.
 (rs|ai) integrals will be sorted in core.
 Complete sort for first half transformation.
 First half transformation complete.
 Complete sort for second half transformation.
 Second half transformation complete.
 ModeAB=           2 MOrb=             2 LenV=     104171697
 LASXX=       493564 LTotXX=      493564 LenRXX=     3220000
 LTotAB=      492482 MaxLAS=     3220000 LenRXY=      492482
 NonZer=     3274500 LenScr=     5611520 LnRSAI=           0
 LnScr1=           0 LExtra=           0 Total=      9324002
 MaxDsk=          -1 SrtSym=           F ITran=            4
 DoSDTr:  NPSUse=  1
 JobTyp=2 Pass  1:  I=   1 to   2.
 (rs|ai) integrals will be sorted in core.
 Complete sort for first half transformation.
 First half transformation complete.
 Complete sort for second half transformation.
 Second half transformation complete.
 Spin components of T(2) and E(2):
     alpha-alpha T2 =       0.2520456884D-04 E2=     -0.3633048075D-04
     alpha-beta  T2 =       0.2511452585D-01 E2=     -0.4395338271D-01
     beta-beta   T2 =       0.1674388423D-02 E2=     -0.3428966219D-02
 ANorm=    0.1013318370D+01
 E2 =    -0.4741867941D-01 EUMP2 =    -0.25080399427183D+02
 (S**2,0)=  0.10091D+01           (S**2,1)=  0.99947D+00
 E(PUHF)=      -0.25040820958D+02        E(PMP2)=      -0.25088203978D+02
 Leave Link  804 at Sun May 22 18:39:18 2022, MaxMem=   104857600 cpu:              10.3 elap:              10.3
 (Enter /apps/software/g16/l913.exe)
 CIDS:  MDV=   104857600.
 Frozen-core window:  NFC=   1 NFV=   0.
 IFCWin=0 IBDFC=1 NFBD=     0     0 NFCmp=     0     0 NFFFC=     0     0
 Using original routines for 1st iteration.
 Using DD4UQ or CC4UQ for 2nd and later iterations.
 Keep R2 and R3 ints in memory in symmetry-blocked form, NReq=40147367.
 FoFCou: FMM=F IPFlag=           0 FMFlag=           0 FMFlg1=           0
         NFxFlg=           0 DoJE=F BraDBF=F KetDBF=F FulRan=T
         wScrn=  0.000000 ICntrl=       600 IOpCl=  0 I1Cent=           0 NGrid=           0
         NMat0=    1 NMatS0=   8001 NMatT0=    0 NMatD0=    1 NMtDS0=    0 NMtDT0=    0
 Petite list used in FoFCou.
 CIDS: In Core Option IDoMem=           1.
 Coupled Cluster theory with single and double substitutions
 ===========================================================
 Iterations=  50 Convergence= 0.100D-06
 Produce multiple copies of IABC intergrals
 Iteration Nr.   1
 **********************
 DD1Dir will call FoFMem   1 times, MxPair=        10
 NAB=     4 NAA=     1 NBB=     1.
 E(PMP3)=      -0.25099948202D+02
 MP4(R+Q)=  0.12674631D-02
 Maximum subspace dimension=  5
 A-vector RMS=  1.9123383D-03 Max=  1.5292578D-02 conv= 1.00D-05.
 RLE energy=       -0.0609049013
 E3=       -0.11772152D-01        EUMP3=      -0.25092171579D+02
 E4(DQ)=   -0.40583352D-02        UMP4(DQ)=   -0.25096229915D+02
 E4(SDQ)=  -0.43594239D-02        UMP4(SDQ)=  -0.25096531003D+02
 VARIATIONAL ENERGIES WITH THE FIRST-ORDER WAVEFUNCTION:
 DE(Corr)= -0.57918637E-01 E(Corr)=     -25.090899385    
 NORM(A)=   0.10261907D+01
 Iteration Nr.   2
 **********************
 DD1Dir will call FoFMem   1 times, MxPair=        10
 NAB=     4 NAA=     1 NBB=     1.
 A-vector RMS=  7.1576562D-04 Max=  6.1757603D-03 conv= 1.00D-05.
 RLE energy=       -0.0663060170
 DE(Corr)= -0.63607206E-01 E(CORR)=     -25.096587954     Delta=-5.69D-03
 NORM(A)=   0.10343203D+01
 Iteration Nr.   3
 **********************
 DD1Dir will call FoFMem   1 times, MxPair=        10
 NAB=     4 NAA=     1 NBB=     1.
 A-vector RMS=  2.3703393D-04 Max=  1.0887945D-03 conv= 1.00D-05.
 RLE energy=       -0.0666564246
 DE(Corr)= -0.66293139E-01 E(CORR)=     -25.099273887     Delta=-2.69D-03
 NORM(A)=   0.10356822D+01
 Iteration Nr.   4
 **********************
 DD1Dir will call FoFMem   1 times, MxPair=        10
 NAB=     4 NAA=     1 NBB=     1.
 A-vector RMS=  5.6728460D-05 Max=  2.8754461D-04 conv= 1.00D-05.
 RLE energy=       -0.0667579152
 DE(Corr)= -0.66691937E-01 E(CORR)=     -25.099672685     Delta=-3.99D-04
 NORM(A)=   0.10359293D+01
 Iteration Nr.   5
 **********************
 DD1Dir will call FoFMem   1 times, MxPair=        10
 NAB=     4 NAA=     1 NBB=     1.
 A-vector RMS=  2.7421028D-05 Max=  2.3775043D-04 conv= 1.00D-05.
 RLE energy=       -0.0667375152
 DE(Corr)= -0.66745980E-01 E(CORR)=     -25.099726727     Delta=-5.40D-05
 NORM(A)=   0.10359143D+01
 Iteration Nr.   6
 **********************
 DD1Dir will call FoFMem   1 times, MxPair=        10
 NAB=     4 NAA=     1 NBB=     1.
 A-vector RMS=  9.9032146D-06 Max=  1.1501416D-04 conv= 1.00D-05.
 RLE energy=       -0.0667427478
 DE(Corr)= -0.66739658E-01 E(CORR)=     -25.099720406     Delta= 6.32D-06
 NORM(A)=   0.10359249D+01
 Iteration Nr.   7
 **********************
 DD1Dir will call FoFMem   1 times, MxPair=        10
 NAB=     4 NAA=     1 NBB=     1.
 A-vector RMS=  8.6087959D-06 Max=  1.0704401D-04 conv= 1.00D-05.
 RLE energy=       -0.0667476883
 DE(Corr)= -0.66741420E-01 E(CORR)=     -25.099722167     Delta=-1.76D-06
 NORM(A)=   0.10359402D+01
 Iteration Nr.   8
 **********************
 DD1Dir will call FoFMem   1 times, MxPair=        10
 NAB=     4 NAA=     1 NBB=     1.
 A-vector RMS=  8.3169954D-06 Max=  9.3273120D-05 conv= 1.00D-05.
 RLE energy=       -0.0667479931
 DE(Corr)= -0.66744356E-01 E(CORR)=     -25.099725104     Delta=-2.94D-06
 NORM(A)=   0.10359557D+01
 Iteration Nr.   9
 **********************
 DD1Dir will call FoFMem   1 times, MxPair=        10
 NAB=     4 NAA=     1 NBB=     1.
 A-vector RMS=  9.9172710D-06 Max=  8.4132992D-05 conv= 1.00D-05.
 RLE energy=       -0.0667492270
 DE(Corr)= -0.66746798E-01 E(CORR)=     -25.099727546     Delta=-2.44D-06
 NORM(A)=   0.10359718D+01
 Iteration Nr.  10
 **********************
 DD1Dir will call FoFMem   1 times, MxPair=        10
 NAB=     4 NAA=     1 NBB=     1.
 A-vector RMS=  7.6405360D-06 Max=  5.6904667D-05 conv= 1.00D-05.
 RLE energy=       -0.0667449356
 DE(Corr)= -0.66747396E-01 E(CORR)=     -25.099728144     Delta=-5.98D-07
 NORM(A)=   0.10359738D+01
 Iteration Nr.  11
 **********************
 DD1Dir will call FoFMem   1 times, MxPair=        10
 NAB=     4 NAA=     1 NBB=     1.
 A-vector RMS=  7.4749394D-06 Max=  4.5914476D-05 conv= 1.00D-05.
 RLE energy=       -0.0667433212
 DE(Corr)= -0.66745158E-01 E(CORR)=     -25.099725906     Delta= 2.24D-06
 NORM(A)=   0.10359724D+01
 Iteration Nr.  12
 **********************
 DD1Dir will call FoFMem   1 times, MxPair=        10
 NAB=     4 NAA=     1 NBB=     1.
 A-vector RMS=  3.5241763D-06 Max=  1.6893476D-05 conv= 1.00D-05.
 RLE energy=       -0.0667431683
 DE(Corr)= -0.66743491E-01 E(CORR)=     -25.099724238     Delta= 1.67D-06
 NORM(A)=   0.10359726D+01
 Iteration Nr.  13
 **********************
 DD1Dir will call FoFMem   1 times, MxPair=        10
 NAB=     4 NAA=     1 NBB=     1.
 A-vector RMS=  8.9773049D-07 Max=  1.1965474D-05 conv= 1.00D-05.
 RLE energy=       -0.0667432691
 DE(Corr)= -0.66743255E-01 E(CORR)=     -25.099724002     Delta= 2.36D-07
 NORM(A)=   0.10359729D+01
 Iteration Nr.  14
 **********************
 DD1Dir will call FoFMem   1 times, MxPair=        10
 NAB=     4 NAA=     1 NBB=     1.
 A-vector RMS=  8.1937953D-07 Max=  7.3330572D-06 conv= 1.00D-05.
 RLE energy=       -0.0667433695
 DE(Corr)= -0.66743297E-01 E(CORR)=     -25.099724045     Delta=-4.23D-08
 NORM(A)=   0.10359731D+01
 CI/CC converged in   14 iterations to DelEn=-4.23D-08 Conv= 1.00D-07 ErrA1= 8.19D-07 Conv= 1.00D-05
 Wavefunction amplitudes converged. E(Corr)=     -25.099724045    
 Largest amplitude= 7.07D-02

 S**2, projected HF & approx projected MPn energies after annihilation of
 unwanted spin states (see manual for definitions):

 spins       (S**2,0) (S**2,1)    PUHF        PMP2        PMP3        PMP4
 annihilated
 s+1        -0.04552 -0.00886  -25.040821  -25.088204  -25.099948
 s+1,s+2     0.00000 -0.00000  -25.035768  -25.083181  -25.094949

 Discarding MO integrals.
 Leave Link  913 at Sun May 22 18:39:23 2022, MaxMem=   104857600 cpu:               4.6 elap:               4.6
 (Enter /apps/software/g16/l601.exe)
 Copying SCF densities to generalized density rwf, IOpCl= 1 IROHF=0.

 **********************************************************************

            Population analysis using the SCF density.

 **********************************************************************

 Orbital symmetries:
 Alpha Orbitals:
       Occupied  (SG) (SG) (SG)
       Virtual   (PI) (PI) (SG) (SG) (SG) (PI) (PI) (SG) (PI) (PI)
                 (DLTA) (DLTA) (SG) (PI) (PI) (SG) (PI) (PI) (SG)
                 (SG) (SG) (PHI) (PHI) (DLTA) (DLTA) (PI) (PI)
                 (DLTA) (DLTA) (SG) (PI) (PI) (SG) (DLTA) (DLTA)
                 (PI) (PI) (SG) (PI) (PI) (SG) (PI) (PI) (SG) (?A)
                 (?A) (PHI) (PHI) (DLTA) (DLTA) (PI) (PI) (SG)
                 (DLTA) (DLTA) (SG) (PHI) (PHI) (PI) (PI) (DLTA)
                 (DLTA) (SG) (PI) (PI) (SG) (PHI) (PHI) (DLTA)
                 (DLTA) (SG) (PI) (PI) (SG) (DLTA) (DLTA) (PI)
                 (PI) (SG) (PI) (PI) (SG) (PI) (PI) (SG) (?A) (?A)
                 (PHI) (PHI) (DLTA) (DLTA) (DLTA) (DLTA) (PI) (PI)
                 (SG) (PI) (PI) (SG) (PHI) (PHI) (DLTA) (DLTA)
                 (PI) (PI) (SG) (PHI) (PHI) (DLTA) (DLTA) (PI)
                 (PI) (SG) (SG) (PI) (PI) (SG) (DLTA) (DLTA) (PI)
                 (PI) (SG) (SG)
 Beta  Orbitals:
       Occupied  (SG) (SG) (SG)
       Virtual   (SG) (PI) (PI) (SG) (SG) (PI) (PI) (SG) (PI) (PI)
                 (DLTA) (DLTA) (SG) (PI) (PI) (SG) (PI) (PI) (SG)
                 (SG) (SG) (PHI) (PHI) (DLTA) (DLTA) (PI) (PI)
                 (PI) (PI) (SG) (DLTA) (DLTA) (SG) (DLTA) (DLTA)
                 (PI) (PI) (SG) (PI) (PI) (SG) (PI) (PI) (SG) (?A)
                 (?A) (PHI) (PHI) (DLTA) (DLTA) (SG) (PI) (PI)
                 (SG) (PI) (PI) (DLTA) (DLTA) (SG) (PHI) (PHI)
                 (DLTA) (DLTA) (PI) (PI) (SG) (PHI) (PHI) (DLTA)
                 (DLTA) (PI) (PI) (SG) (SG) (DLTA) (DLTA) (PI)
                 (PI) (SG) (PI) (PI) (SG) (PI) (PI) (SG) (?A) (?A)
                 (PHI) (PHI) (DLTA) (DLTA) (DLTA) (DLTA) (PI) (PI)
                 (PI) (PI) (SG) (SG) (PHI) (PHI) (DLTA) (DLTA)
                 (PI) (PI) (SG) (PHI) (PHI) (DLTA) (DLTA) (PI)
                 (PI) (SG) (SG) (PI) (PI) (SG) (DLTA) (DLTA) (PI)
                 (PI) (SG) (SG)
 The electronic state is 1-SG.
 Alpha  occ. eigenvalues --   -7.68674  -0.49497  -0.44649
 Alpha virt. eigenvalues --    0.02716   0.02716   0.04320   0.05257   0.07704
 Alpha virt. eigenvalues --    0.08413   0.08413   0.11594   0.14223   0.14223
 Alpha virt. eigenvalues --    0.14563   0.14563   0.17630   0.20773   0.20773
 Alpha virt. eigenvalues --    0.25850   0.31958   0.31958   0.34628   0.36073
 Alpha virt. eigenvalues --    0.41094   0.46167   0.46167   0.46869   0.46869
 Alpha virt. eigenvalues --    0.47109   0.47109   0.50124   0.50124   0.50724
 Alpha virt. eigenvalues --    0.52887   0.52887   0.57638   0.62270   0.62270
 Alpha virt. eigenvalues --    0.67414   0.67414   0.74714   0.77242   0.77242
 Alpha virt. eigenvalues --    0.88207   1.06109   1.06109   1.13571   1.36956
 Alpha virt. eigenvalues --    1.36956   1.38425   1.38425   1.39447   1.39447
 Alpha virt. eigenvalues --    1.39944   1.39944   1.40585   1.41582   1.41582
 Alpha virt. eigenvalues --    1.43141   1.43954   1.43954   1.45212   1.45212
 Alpha virt. eigenvalues --    1.46165   1.46165   1.46899   1.48382   1.48382
 Alpha virt. eigenvalues --    1.54319   1.56302   1.56302   1.56874   1.56874
 Alpha virt. eigenvalues --    1.59270   1.60782   1.60782   1.74018   2.45436
 Alpha virt. eigenvalues --    2.45436   2.47921   2.47921   2.53567   2.56805
 Alpha virt. eigenvalues --    2.56805   2.65833   3.74483   3.74483   3.81259
 Alpha virt. eigenvalues --    3.92010   3.92010   3.94540   3.94540   3.96021
 Alpha virt. eigenvalues --    3.96021   3.96484   3.96484   3.97830   3.97830
 Alpha virt. eigenvalues --    3.99851   4.00292   4.00292   4.04475   4.08847
 Alpha virt. eigenvalues --    4.08847   4.12164   4.12164   4.15405   4.15405
 Alpha virt. eigenvalues --    4.20534   6.55593   6.55593   6.55681   6.55681
 Alpha virt. eigenvalues --    6.56239   6.56239   6.57368   7.43528   7.94211
 Alpha virt. eigenvalues --    7.94211   7.98464   8.39264   8.39264   8.40914
 Alpha virt. eigenvalues --    8.40914   8.46490  13.07349
  Beta  occ. eigenvalues --   -7.70185  -0.54552  -0.31891
  Beta virt. eigenvalues --    0.02018   0.02351   0.02351   0.04986   0.07658
  Beta virt. eigenvalues --    0.07713   0.07713   0.10805   0.14293   0.14293
  Beta virt. eigenvalues --    0.14557   0.14557   0.18096   0.22253   0.22253
  Beta virt. eigenvalues --    0.24340   0.31149   0.31149   0.32880   0.34361
  Beta virt. eigenvalues --    0.46098   0.46175   0.46175   0.46496   0.46496
  Beta virt. eigenvalues --    0.46622   0.46622   0.49930   0.49930   0.49957
  Beta virt. eigenvalues --    0.50019   0.50019   0.56471   0.63574   0.63574
  Beta virt. eigenvalues --    0.68826   0.68826   0.77103   0.83487   0.83487
  Beta virt. eigenvalues --    0.92200   1.05194   1.05194   1.06679   1.36983
  Beta virt. eigenvalues --    1.36983   1.37910   1.37910   1.38558   1.38558
  Beta virt. eigenvalues --    1.38899   1.38953   1.38953   1.39857   1.40473
  Beta virt. eigenvalues --    1.40473   1.41094   1.41094   1.43055   1.43890
  Beta virt. eigenvalues --    1.43890   1.44598   1.44598   1.46023   1.46023
  Beta virt. eigenvalues --    1.51799   1.57559   1.57559   1.58063   1.58063
  Beta virt. eigenvalues --    1.61505   1.61505   1.65661   1.78406   2.49379
  Beta virt. eigenvalues --    2.49379   2.51908   2.51908   2.58230   2.64141
  Beta virt. eigenvalues --    2.64141   2.72043   3.73779   3.73779   3.76500
  Beta virt. eigenvalues --    3.91941   3.91941   3.93452   3.93452   3.94545
  Beta virt. eigenvalues --    3.94545   3.95579   3.95579   3.95590   3.95590
  Beta virt. eigenvalues --    3.96592   3.96592   3.96650   4.00492   4.08580
  Beta virt. eigenvalues --    4.08580   4.10023   4.10023   4.12084   4.12084
  Beta virt. eigenvalues --    4.16723   6.58477   6.58477   6.58563   6.58563
  Beta virt. eigenvalues --    6.59116   6.59116   6.60239   7.51654   7.99997
  Beta virt. eigenvalues --    7.99997   8.04200   8.43486   8.43486   8.45124
  Beta virt. eigenvalues --    8.45124   8.50673  13.06185
          Condensed to atoms (all electrons):
               1          2
     1  B    4.999880  -0.000596
     2  H   -0.000596   1.001312
          Atomic-Atomic Spin Densities.
               1          2
     1  B   -0.999891  -0.000667
     2  H   -0.000667   1.001225
 Mulliken charges and spin densities:
               1          2
     1  B    0.000716  -1.000558
     2  H   -0.000716   1.000558
 Sum of Mulliken charges =  -0.00000  -0.00000
 Mulliken charges and spin densities with hydrogens summed into heavy atoms:
               1          2
     1  B   -0.000000  -0.000000
 Electronic spatial extent (au):  <R**2>=             71.3983
 Charge=              0.0000 electrons
 Dipole moment (field-independent basis, Debye):
    X=              0.0000    Y=              0.0000    Z=              0.0326  Tot=              0.0326
 Quadrupole moment (field-independent basis, Debye-Ang):
   XX=             -7.3081   YY=             -7.3081   ZZ=            -10.8098
   XY=              0.0000   XZ=              0.0000   YZ=              0.0000
 Traceless Quadrupole moment (field-independent basis, Debye-Ang):
   XX=              1.1672   YY=              1.1672   ZZ=             -2.3344
   XY=              0.0000   XZ=              0.0000   YZ=              0.0000
 Octapole moment (field-independent basis, Debye-Ang**2):
  XXX=              0.0000  YYY=              0.0000  ZZZ=             -4.5982  XYY=              0.0000
  XXY=              0.0000  XXZ=              0.5715  XZZ=              0.0000  YZZ=              0.0000
  YYZ=              0.5715  XYZ=              0.0000
 Hexadecapole moment (field-independent basis, Debye-Ang**3):
 XXXX=            -10.7386 YYYY=            -10.7386 ZZZZ=           -151.4847 XXXY=              0.0000
 XXXZ=              0.0000 YYYX=              0.0000 YYYZ=              0.0000 ZZZX=              0.0000
 ZZZY=              0.0000 XXYY=             -3.5795 XXZZ=            -24.8535 YYZZ=            -24.8535
 XXYZ=              0.0000 YYXZ=              0.0000 ZZXY=              0.0000
 N-N= 6.299728701429D-01 E-N=-5.916334086637D+01  KE= 2.503191741784D+01
 Symmetry A1   KE= 2.503191741784D+01
 Symmetry A2   KE= 3.286658648926D-49
 Symmetry B1   KE= 0.000000000000D+00
 Symmetry B2   KE= 0.000000000000D+00
 Symmetry A1   SP=-5.021769858353D-15
 Symmetry A2   SP=-4.074079956580D-49
 Symmetry B1   SP= 0.000000000000D+00
 Symmetry B2   SP= 0.000000000000D+00
 Leave Link  601 at Sun May 22 18:39:23 2022, MaxMem=   104857600 cpu:               0.1 elap:               0.1
 (Enter /apps/software/g16/l9999.exe)
 1\1\GINC-CNODE13\SP\UCCSD-FC\Aug-CC-pVQZ\B1H1\LCZ\22-May-2022\0\\#p UH
 F/aug-cc-pVQZ guess=read CCSD=FC\\BH UCCSD at 4.2 Angstrom\\0,1\B,0,0.
 ,0.,0.\H,0,4.2,0.,0.\\Version=ES64L-G16RevA.03\State=1-SG\HF=-25.03298
 07\MP2=-25.0803994\MP3=-25.0921716\MP4D=-25.0974974\MP4DQ=-25.0962299\
 PUHF=-25.040821\PMP2-0=-25.088204\PMP3-0=-25.0999482\MP4SDQ=-25.096531
 \CCSD=-25.099724\S2=1.009067\S2-1=0.999474\S2A=0.089021\RMSD=3.869e-10
 \PG=C*V [C*(H1B1)]\\@


 EXPERIMENTALISTS THINK SILICON IS REALLY FUN TO USE
     ITS PLACE IN NOVEL COMPOUNDS IS CERTAIN TO AMUSE
 THEY SIT ALL DAY IN LABORATORIES MAKING ALL THIS SLUDGE
     "LOADED WITH THE SILICON THEY SAY", TO ME IT LOOKS LIKE FUDGE.
 FOR HAPPY THOUGH THEY BE WITH CRUD, I'D LIKE TO KNOW A LITTLE
      ABOUT THE PI BONDS ON THE EDGE AND SIGMAS IN THE MIDDLE.

 SO LETS DERIVE A WAVEFUNCTION.....6-31G*
     USE AN OPTIMAL GEOMETRY AND SEE WHERE ELECTRONS ARE.
 BUT WHAT OF CORRELATION?  ASKS THE WIRY LITTLE SKEPTIC.
     WE'LL THROW IN PERTURBATION AS AN ELECTRON ANTISEPTIC.
 AND WHEN THE PROGRAM GIVES US ANSWERS IN THEM WE CAN TRUST
     SINCE NOBODY CAN MAKE THE STUFF, WE HAVE NO CHOICE, WE MUST.

 SO THEORY GUYS HAVE GOT IT MADE, IN ROOMS FREE OF POLLUTION.
     INSTEAD OF PROBLEMS WITH THE REFLUX, THEY HAVE ONLY SOLUTIONS.
 AND WHEN THE FEDS ANNOUNCE THE LIST OF CARCINOGENIC TERRORS,
     THE THEORISTS SIT SAFELY AT THEIR TERMINALS FIXING ERRORS.
 IN OTHER WORDS, EXPERIMENTALISTS WILL LIKELY DIE OF CANCER
     FROM WORKING HARD YET FRUITLESSLY...TILL THEORY GIVES THE ANSWER.
          -- THOMAS A. HOLME, 1983
 Job cpu time:       0 days  0 hours  0 minutes 19.1 seconds.
 Elapsed time:       0 days  0 hours  0 minutes 19.1 seconds.
 File lengths (MBytes):  RWF=    140 Int=      0 D2E=      0 Chk=     67 Scr=      1
 Normal termination of Gaussian 16 at Sun May 22 18:39:23 2022.

Sender: Unischeduler System <lcz@mgt01>
Subject: Job 134226: <#!/bin/bash
#BSUB -J intel
#BSUB -o BH-4.2-UCCSD-G.out
#BSUB -n 8
#BSUB -q cqueue
#BSUB -R span[hosts=1]
export g16root=/apps/software
source /apps/software/g16/bsd/g16.profile
export GAUSS_SCRDIR=/scratch
/apps/software/g16/g16 < BH-4.2-UCCSD-G.inp > BH-4.2-UCCSD-G.out> Done

Job <#!/bin/bash
#BSUB -J intel
#BSUB -o BH-4.2-UCCSD-G.out
#BSUB -n 8
#BSUB -q cqueue
#BSUB -R span[hosts=1]
export g16root=/apps/software
source /apps/software/g16/bsd/g16.profile
export GAUSS_SCRDIR=/scratch
/apps/software/g16/g16 < BH-4.2-UCCSD-G.inp > BH-4.2-UCCSD-G.out> was submitted from host <mgt01> by user <lcz>.
Job was executed on host(s) <8*cnode13>, in queue <cqueue>, as user <lcz>.
</apps/users/lcz> was used as the home directory.
</apps/users/lcz/exe13/UCCSD> was used as the working directory.
Started at 2022-05-22 18:39:04
Results reported at 2022-05-22 18:39:23

Your job looked like:

------------------------------------------------------------
# User input
#!/bin/bash
#BSUB -J intel
#BSUB -o BH-4.2-UCCSD-G.out
#BSUB -n 8
#BSUB -q cqueue
#BSUB -R span[hosts=1]
export g16root=/apps/software
source /apps/software/g16/bsd/g16.profile
export GAUSS_SCRDIR=/scratch
/apps/software/g16/g16 < BH-4.2-UCCSD-G.inp > BH-4.2-UCCSD-G.out
------------------------------------------------------------

Successfully completed.

Resource usage summary:

    CPU time   :           15.16 sec.
    Max Memory :               452 MB
    Max Processes  :               5


The output (if any) follows:

