 Entering Gaussian System, Link 0=/apps/software/g16/g16
 Initial command:
 /apps/software/g16/l1.exe "/scratch/Gau-225728.inp" -scrdir="/scratch/"
 Entering Link 1 = /apps/software/g16/l1.exe PID=    225729.
  
 Copyright (c) 1988,1990,1992,1993,1995,1998,2003,2009,2016,
            Gaussian, Inc.  All Rights Reserved.
  
 This is part of the Gaussian(R) 16 program.  It is based on
 the Gaussian(R) 09 system (copyright 2009, Gaussian, Inc.),
 the Gaussian(R) 03 system (copyright 2003, Gaussian, Inc.),
 the Gaussian(R) 98 system (copyright 1998, Gaussian, Inc.),
 the Gaussian(R) 94 system (copyright 1995, Gaussian, Inc.),
 the Gaussian 92(TM) system (copyright 1992, Gaussian, Inc.),
 the Gaussian 90(TM) system (copyright 1990, Gaussian, Inc.),
 the Gaussian 88(TM) system (copyright 1988, Gaussian, Inc.),
 the Gaussian 86(TM) system (copyright 1986, Carnegie Mellon
 University), and the Gaussian 82(TM) system (copyright 1983,
 Carnegie Mellon University). Gaussian is a federally registered
 trademark of Gaussian, Inc.
  
 This software contains proprietary and confidential information,
 including trade secrets, belonging to Gaussian, Inc.
  
 This software is provided under written license and may be
 used, copied, transmitted, or stored only in accord with that
 written license.
  
 The following legend is applicable only to US Government
 contracts under FAR:
  
                    RESTRICTED RIGHTS LEGEND
  
 Use, reproduction and disclosure by the US Government is
 subject to restrictions as set forth in subparagraphs (a)
 and (c) of the Commercial Computer Software - Restricted
 Rights clause in FAR 52.227-19.
  
 Gaussian, Inc.
 340 Quinnipiac St., Bldg. 40, Wallingford CT 06492
  
  
 ---------------------------------------------------------------
 Warning -- This program may not be used in any manner that
 competes with the business of Gaussian, Inc. or will provide
 assistance to any competitor of Gaussian, Inc.  The licensee
 of this program is prohibited from giving any competitor of
 Gaussian, Inc. access to this program.  By using this program,
 the user acknowledges that Gaussian, Inc. is engaged in the
 business of creating and licensing software in the field of
 computational chemistry and represents and warrants to the
 licensee that it is not a competitor of Gaussian, Inc. and that
 it will not use this program in any manner prohibited above.
 ---------------------------------------------------------------
  

 Cite this work as:
 Gaussian 16, Revision A.03,
 M. J. Frisch, G. W. Trucks, H. B. Schlegel, G. E. Scuseria, 
 M. A. Robb, J. R. Cheeseman, G. Scalmani, V. Barone, 
 G. A. Petersson, H. Nakatsuji, X. Li, M. Caricato, A. V. Marenich, 
 J. Bloino, B. G. Janesko, R. Gomperts, B. Mennucci, H. P. Hratchian, 
 J. V. Ortiz, A. F. Izmaylov, J. L. Sonnenberg, D. Williams-Young, 
 F. Ding, F. Lipparini, F. Egidi, J. Goings, B. Peng, A. Petrone, 
 T. Henderson, D. Ranasinghe, V. G. Zakrzewski, J. Gao, N. Rega, 
 G. Zheng, W. Liang, M. Hada, M. Ehara, K. Toyota, R. Fukuda, 
 J. Hasegawa, M. Ishida, T. Nakajima, Y. Honda, O. Kitao, H. Nakai, 
 T. Vreven, K. Throssell, J. A. Montgomery, Jr., J. E. Peralta, 
 F. Ogliaro, M. J. Bearpark, J. J. Heyd, E. N. Brothers, K. N. Kudin, 
 V. N. Staroverov, T. A. Keith, R. Kobayashi, J. Normand, 
 K. Raghavachari, A. P. Rendell, J. C. Burant, S. S. Iyengar, 
 J. Tomasi, M. Cossi, J. M. Millam, M. Klene, C. Adamo, R. Cammi, 
 J. W. Ochterski, R. L. Martin, K. Morokuma, O. Farkas, 
 J. B. Foresman, and D. J. Fox, Gaussian, Inc., Wallingford CT, 2016.
 
 ******************************************
 Gaussian 16:  ES64L-G16RevA.03 25-Dec-2016
                22-May-2022 
 ******************************************
 %chk=BH-4.0-UHF-G.chk
 ---------------------------------------
 #p UHF/aug-cc-pVQZ guess=mix stable=opt
 ---------------------------------------
 1/38=1,172=1/1;
 2/12=2,17=6,18=5,40=1/2;
 3/5=16,6=2,7=10,11=2,25=1,30=1,116=2/1,2,3;
 4/13=-1/1;
 5/5=2,38=5/2;
 6/7=2,8=2,9=2,10=2,28=1/1;
 8/6=1,10=90,11=11/1;
 9/8=-3,42=1,46=1/14;
 5/5=2,8=3,17=40,38=5/8(-2);
 6/7=2,8=2,9=2,10=2,28=1/1;
 99/5=1,9=1/99;
 Leave Link    1 at Sun May 22 18:31:49 2022, MaxMem=           0 cpu:               0.0 elap:               0.0
 (Enter /apps/software/g16/l101.exe)
 ----------------------
 BH UHF at 4.0 Angstrom
 ----------------------
 Symbolic Z-matrix:
 Charge =  0 Multiplicity = 1
 B                     0.        0.        0. 
 H                     4.        0.        0. 
 
 ITRead=  0  0
 MicOpt= -1 -1
 NAtoms=      2 NQM=        2 NQMF=       0 NMMI=      0 NMMIF=      0
                NMic=       0 NMicF=      0.
                    Isotopes and Nuclear Properties:
 (Nuclear quadrupole moments (NQMom) in fm**2, nuclear magnetic moments (NMagM)
  in nuclear magnetons)

  Atom         1           2
 IAtWgt=          11           1
 AtmWgt=  11.0093053   1.0078250
 NucSpn=           3           1
 AtZEff=  -0.0000000  -0.0000000
 NQMom=    4.0590000   0.0000000
 NMagM=    2.6886370   2.7928460
 AtZNuc=   5.0000000   1.0000000
 Leave Link  101 at Sun May 22 18:31:49 2022, MaxMem=   104857600 cpu:               0.1 elap:               0.1
 (Enter /apps/software/g16/l202.exe)
                          Input orientation:                          
 ---------------------------------------------------------------------
 Center     Atomic      Atomic             Coordinates (Angstroms)
 Number     Number       Type             X           Y           Z
 ---------------------------------------------------------------------
      1          5           0        0.000000    0.000000    0.000000
      2          1           0        4.000000    0.000000    0.000000
 ---------------------------------------------------------------------
 Stoichiometry    BH
 Framework group  C*V[C*(HB)]
 Deg. of freedom     1
 Full point group                 C*V     NOp   4
 Largest Abelian subgroup         C2V     NOp   4
 Largest concise Abelian subgroup C1      NOp   1
                         Standard orientation:                         
 ---------------------------------------------------------------------
 Center     Atomic      Atomic             Coordinates (Angstroms)
 Number     Number       Type             X           Y           Z
 ---------------------------------------------------------------------
      1          5           0        0.000000    0.000000    0.666667
      2          1           0        0.000000    0.000000   -3.333333
 ---------------------------------------------------------------------
 Rotational constants (GHZ):           0.0000000          34.2099886          34.2099886
 Leave Link  202 at Sun May 22 18:31:49 2022, MaxMem=   104857600 cpu:               0.0 elap:               0.0
 (Enter /apps/software/g16/l301.exe)
 Standard basis: Aug-CC-pVQZ (5D, 7F)
 Ernie: Thresh=  0.10000D-02 Tol=  0.10000D-05 Strict=F.
 Ernie:  4 primitive shells out of 54 were deleted.
 There are    68 symmetry adapted cartesian basis functions of A1  symmetry.
 There are    18 symmetry adapted cartesian basis functions of A2  symmetry.
 There are    37 symmetry adapted cartesian basis functions of B1  symmetry.
 There are    37 symmetry adapted cartesian basis functions of B2  symmetry.
 There are    50 symmetry adapted basis functions of A1  symmetry.
 There are    16 symmetry adapted basis functions of A2  symmetry.
 There are    30 symmetry adapted basis functions of B1  symmetry.
 There are    30 symmetry adapted basis functions of B2  symmetry.
   126 basis functions,   180 primitive gaussians,   160 cartesian basis functions
     3 alpha electrons        3 beta electrons
       nuclear repulsion energy         0.6614715137 Hartrees.
 IExCor=    0 DFT=F Ex=HF Corr=None ExCW=0 ScaHFX=  1.000000
 ScaDFX=  1.000000  1.000000  1.000000  1.000000 ScalE2=  1.000000  1.000000
 IRadAn=      5 IRanWt=     -1 IRanGd=            0 ICorTp=0 IEmpDi=  4
 NAtoms=    2 NActive=    2 NUniq=    2 SFac= 1.00D+00 NAtFMM=   60 NAOKFM=F Big=F
 Integral buffers will be    131072 words long.
 Raffenetti 2 integral format.
 Two-electron integral symmetry is turned on.
 Leave Link  301 at Sun May 22 18:31:49 2022, MaxMem=   104857600 cpu:               0.1 elap:               0.1
 (Enter /apps/software/g16/l302.exe)
 NPDir=0 NMtPBC=     1 NCelOv=     1 NCel=       1 NClECP=     1 NCelD=      1
         NCelK=      1 NCelE2=     1 NClLst=     1 CellRange=     0.0.
 One-electron integrals computed using PRISM.
 One-electron integral symmetry used in STVInt
 NBasis=   126 RedAO= T EigKep=  1.13D-02  NBF=    50    16    30    30
 NBsUse=   126 1.00D-06 EigRej= -1.00D+00 NBFU=    50    16    30    30
 Leave Link  302 at Sun May 22 18:31:49 2022, MaxMem=   104857600 cpu:               0.1 elap:               0.1
 (Enter /apps/software/g16/l303.exe)
 DipDrv:  MaxL=1.
 Leave Link  303 at Sun May 22 18:31:49 2022, MaxMem=   104857600 cpu:               0.0 elap:               0.0
 (Enter /apps/software/g16/l401.exe)
 ExpMin= 1.88D-02 ExpMax= 2.39D+04 ExpMxC= 2.30D+02 IAcc=3 IRadAn=         5 AccDes= 0.00D+00
 Harris functional with IExCor=  205 and IRadAn=       5 diagonalized for initial guess.
 HarFok:  IExCor=  205 AccDes= 0.00D+00 IRadAn=         5 IDoV= 1 UseB2=F ITyADJ=14
 ICtDFT=  3500011 ScaDFX=  1.000000  1.000000  1.000000  1.000000
 FoFCou: FMM=F IPFlag=           0 FMFlag=      100000 FMFlg1=           0
         NFxFlg=           0 DoJE=T BraDBF=F KetDBF=T FulRan=T
         wScrn=  0.000000 ICntrl=       500 IOpCl=  0 I1Cent=   200000004 NGrid=           0
         NMat0=    1 NMatS0=      1 NMatT0=    0 NMatD0=    1 NMtDS0=    0 NMtDT0=    0
 Petite list used in FoFCou.
 Harris En= -24.9897358755842    
 JPrj=0 DoOrth=F DoCkMO=T.
 Mixing orbitals, IMix= 1 IMixAn=  0 NRI=1 NE=    3 Coef=  7.07106781D-01  7.07106781D-01
 Mixing orbitals, IMix= 1 IMixAn=  0 NRI=1 NE=    3 Coef= -7.07106781D-01  7.07106781D-01
 Initial guess orbital symmetries:
 Alpha Orbitals:
       Occupied  (SG) (SG) (?A)
       Virtual   (?A) (?A) (SG) (SG) (PI) (PI) (SG) (SG) (PI) (PI)
                 (DLTA) (DLTA) (SG) (PI) (PI) (SG) (PI) (PI) (SG)
                 (SG) (SG) (PI) (PI) (SG) (DLTA) (DLTA) (DLTA)
                 (DLTA) (PHI) (PHI) (PI) (PI) (SG) (DLTA) (DLTA)
                 (PI) (PI) (SG) (PI) (PI) (SG) (PI) (PI) (SG) (SG)
                 (PI) (PI) (DLTA) (DLTA) (SG) (DLTA) (DLTA) (?B)
                 (?B) (?C) (?B) (?B) (?C) (SG) (DLTA) (DLTA) (PHI)
                 (PHI) (PI) (PI) (SG) (SG) (PHI) (PHI) (DLTA) (DLTA)
                 (PI) (PI) (SG) (DLTA) (DLTA) (PI) (PI) (SG) (PI)
                 (PI) (SG) (PI) (PI) (SG) (DLTA) (DLTA) (PI) (PI)
                 (SG) (?C) (PHI) (PHI) (?C) (DLTA) (DLTA) (PI)
                 (PI) (SG) (PHI) (PHI) (DLTA) (DLTA) (PI) (PI)
                 (SG) (PHI) (PHI) (DLTA) (DLTA) (PI) (PI) (SG)
                 (SG) (PI) (PI) (SG) (DLTA) (DLTA) (PI) (PI) (SG)
                 (SG)
 Beta  Orbitals:
       Occupied  (SG) (SG) (?A)
       Virtual   (?A) (?A) (SG) (SG) (PI) (PI) (SG) (SG) (PI) (PI)
                 (DLTA) (DLTA) (SG) (PI) (PI) (SG) (PI) (PI) (SG)
                 (SG) (SG) (PI) (PI) (SG) (DLTA) (DLTA) (DLTA)
                 (DLTA) (PHI) (PHI) (PI) (PI) (SG) (DLTA) (DLTA)
                 (PI) (PI) (SG) (PI) (PI) (SG) (PI) (PI) (SG) (SG)
                 (PI) (PI) (DLTA) (DLTA) (SG) (DLTA) (DLTA) (?B)
                 (?B) (?C) (?B) (?B) (?C) (SG) (DLTA) (DLTA) (PHI)
                 (PHI) (PI) (PI) (SG) (SG) (PHI) (PHI) (DLTA) (DLTA)
                 (PI) (PI) (SG) (DLTA) (DLTA) (PI) (PI) (SG) (PI)
                 (PI) (SG) (PI) (PI) (SG) (DLTA) (DLTA) (PI) (PI)
                 (SG) (?C) (PHI) (PHI) (?C) (DLTA) (DLTA) (PI)
                 (PI) (SG) (PHI) (PHI) (DLTA) (DLTA) (PI) (PI)
                 (SG) (PHI) (PHI) (DLTA) (DLTA) (PI) (PI) (SG)
                 (SG) (PI) (PI) (SG) (DLTA) (DLTA) (PI) (PI) (SG)
                 (SG)
 Initial guess <Sx>= 0.0000 <Sy>= 0.0000 <Sz>= 0.0000 <S**2>= 1.0000 S= 0.6180
 Leave Link  401 at Sun May 22 18:31:49 2022, MaxMem=   104857600 cpu:               0.2 elap:               0.2
 (Enter /apps/software/g16/l502.exe)
 Keep R1 and R2 ints in memory in symmetry-blocked form, NReq=40143665.
 FoFCou: FMM=F IPFlag=           0 FMFlag=           0 FMFlg1=           0
         NFxFlg=           0 DoJE=F BraDBF=F KetDBF=F FulRan=T
         wScrn=  0.000000 ICntrl=       600 IOpCl=  0 I1Cent=           0 NGrid=           0
         NMat0=    1 NMatS0=   8001 NMatT0=    0 NMatD0=    1 NMtDS0=    0 NMtDT0=    0
 Petite list used in FoFCou.
 UHF open shell SCF:
 Using DIIS extrapolation, IDIIS=  1040.
 NGot=   104857600 LenX=    88563632 LenY=    88537591
 Requested convergence on RMS density matrix=1.00D-08 within 128 cycles.
 Requested convergence on MAX density matrix=1.00D-06.
 Requested convergence on             energy=1.00D-06.
 No special actions if energy rises.
 An orbital has undefined symmetry, so N**3 symmetry is turned off.

 Cycle   1  Pass 1  IDiag  1:
 Density matrix breaks symmetry, PCut= 1.00D-07
 Density matrix has no symmetry -- integrals replicated.
 E= -24.8371823952141    
 DIIS: error= 2.58D-02 at cycle   1 NSaved=   1.
 NSaved= 1 IEnMin= 1 EnMin= -24.8371823952141     IErMin= 1 ErrMin= 2.58D-02
 ErrMax= 2.58D-02  0.00D+00 EMaxC= 1.00D-01 BMatC= 1.49D-01 BMatP= 1.49D-01
 IDIUse=3 WtCom= 7.42D-01 WtEn= 2.58D-01
 Coeff-Com:  0.100D+01
 Coeff-En:   0.100D+01
 Coeff:      0.100D+01
 Gap=     0.132 Goal=   None    Shift=    0.000
 Gap=     0.132 Goal=   None    Shift=    0.000
 GapD=    0.132 DampG=1.000 DampE=0.500 DampFc=0.5000 IDamp=-1.
 Damping current iteration by 5.00D-01
 RMSDP=1.73D-03 MaxDP=8.28D-02              OVMax= 3.63D-01

 Cycle   2  Pass 1  IDiag  1:
 Density matrix breaks symmetry, PCut= 1.00D-07
 Density matrix has no symmetry -- integrals replicated.
 E= -24.8569325154082     Delta-E=       -0.019750120194 Rises=F Damp=T
 DIIS: error= 1.33D-02 at cycle   2 NSaved=   2.
 NSaved= 2 IEnMin= 2 EnMin= -24.8569325154082     IErMin= 2 ErrMin= 1.33D-02
 ErrMax= 1.33D-02  0.00D+00 EMaxC= 1.00D-01 BMatC= 4.94D-02 BMatP= 1.49D-01
 IDIUse=3 WtCom= 8.67D-01 WtEn= 1.33D-01
 Coeff-Com: -0.629D+00 0.163D+01
 Coeff-En:   0.000D+00 0.100D+01
 Coeff:     -0.546D+00 0.155D+01
 Gap=     0.095 Goal=   None    Shift=    0.000
 Gap=     0.095 Goal=   None    Shift=    0.000
 RMSDP=1.25D-03 MaxDP=5.87D-02 DE=-1.98D-02 OVMax= 2.68D-01

 Cycle   3  Pass 1  IDiag  1:
 Density matrix breaks symmetry, PCut= 1.00D-07
 Density matrix has no symmetry -- integrals replicated.
 E= -24.8753587118907     Delta-E=       -0.018426196482 Rises=F Damp=F
 DIIS: error= 1.35D-02 at cycle   3 NSaved=   3.
 NSaved= 3 IEnMin= 3 EnMin= -24.8753587118907     IErMin= 2 ErrMin= 1.33D-02
 ErrMax= 1.35D-02  0.00D+00 EMaxC= 1.00D-01 BMatC= 1.06D-02 BMatP= 4.94D-02
 IDIUse=3 WtCom= 8.65D-01 WtEn= 1.35D-01
 Coeff-Com: -0.384D+00 0.672D+00 0.712D+00
 Coeff-En:   0.000D+00 0.000D+00 0.100D+01
 Coeff:     -0.332D+00 0.581D+00 0.751D+00
 Gap=     0.143 Goal=   None    Shift=    0.000
 Gap=     0.143 Goal=   None    Shift=    0.000
 RMSDP=8.02D-04 MaxDP=3.21D-02 DE=-1.84D-02 OVMax= 1.83D-01

 Cycle   4  Pass 1  IDiag  1:
 Density matrix breaks symmetry, PCut= 1.00D-07
 Density matrix has no symmetry -- integrals replicated.
 E= -24.8890445301171     Delta-E=       -0.013685818226 Rises=F Damp=F
 DIIS: error= 4.91D-03 at cycle   4 NSaved=   4.
 NSaved= 4 IEnMin= 4 EnMin= -24.8890445301171     IErMin= 4 ErrMin= 4.91D-03
 ErrMax= 4.91D-03  0.00D+00 EMaxC= 1.00D-01 BMatC= 2.95D-03 BMatP= 1.06D-02
 IDIUse=3 WtCom= 9.51D-01 WtEn= 4.91D-02
 Coeff-Com:  0.102D+00-0.221D+00 0.176D+00 0.943D+00
 Coeff-En:   0.000D+00 0.000D+00 0.000D+00 0.100D+01
 Coeff:      0.969D-01-0.210D+00 0.167D+00 0.946D+00
 Gap=     0.142 Goal=   None    Shift=    0.000
 Gap=     0.142 Goal=   None    Shift=    0.000
 RMSDP=4.10D-04 MaxDP=1.19D-02 DE=-1.37D-02 OVMax= 7.37D-02

 Cycle   5  Pass 1  IDiag  1:
 Density matrix breaks symmetry, PCut= 1.00D-07
 Density matrix has no symmetry -- integrals replicated.
 E= -24.8941540596553     Delta-E=       -0.005109529538 Rises=F Damp=F
 DIIS: error= 2.69D-03 at cycle   5 NSaved=   5.
 NSaved= 5 IEnMin= 5 EnMin= -24.8941540596553     IErMin= 5 ErrMin= 2.69D-03
 ErrMax= 2.69D-03  0.00D+00 EMaxC= 1.00D-01 BMatC= 8.43D-04 BMatP= 2.95D-03
 IDIUse=3 WtCom= 9.73D-01 WtEn= 2.69D-02
 Coeff-Com: -0.300D+00 0.579D+00-0.732D-01-0.142D+01 0.221D+01
 Coeff-En:   0.000D+00 0.000D+00 0.000D+00 0.000D+00 0.100D+01
 Coeff:     -0.292D+00 0.563D+00-0.712D-01-0.138D+01 0.218D+01
 Gap=     0.150 Goal=   None    Shift=    0.000
 Gap=     0.150 Goal=   None    Shift=    0.000
 RMSDP=5.12D-04 MaxDP=1.52D-02 DE=-5.11D-03 OVMax= 1.11D-01

 Cycle   6  Pass 1  IDiag  1:
 Density matrix breaks symmetry, PCut= 1.00D-07
 Density matrix has no symmetry -- integrals replicated.
 E= -24.8993190006577     Delta-E=       -0.005164941002 Rises=F Damp=F
 DIIS: error= 3.06D-03 at cycle   6 NSaved=   6.
 NSaved= 6 IEnMin= 6 EnMin= -24.8993190006577     IErMin= 5 ErrMin= 2.69D-03
 ErrMax= 3.06D-03  0.00D+00 EMaxC= 1.00D-01 BMatC= 5.05D-04 BMatP= 8.43D-04
 IDIUse=3 WtCom= 9.73D-01 WtEn= 2.69D-02
 Coeff-Com:  0.242D-01-0.545D-01-0.101D+00 0.597D+00-0.209D+01 0.262D+01
 Coeff-En:   0.000D+00 0.000D+00 0.000D+00 0.000D+00 0.000D+00 0.100D+01
 Coeff:      0.235D-01-0.530D-01-0.984D-01 0.581D+00-0.203D+01 0.258D+01
 Gap=     0.160 Goal=   None    Shift=    0.000
 Gap=     0.160 Goal=   None    Shift=    0.000
 RMSDP=7.31D-04 MaxDP=1.95D-02 DE=-5.16D-03 OVMax= 1.61D-01

 Cycle   7  Pass 1  IDiag  1:
 Density matrix breaks symmetry, PCut= 1.00D-07
 Density matrix has no symmetry -- integrals replicated.
 E= -24.9016825648890     Delta-E=       -0.002363564231 Rises=F Damp=F
 DIIS: error= 3.49D-03 at cycle   7 NSaved=   7.
 NSaved= 7 IEnMin= 7 EnMin= -24.9016825648890     IErMin= 5 ErrMin= 2.69D-03
 ErrMax= 3.49D-03  0.00D+00 EMaxC= 1.00D-01 BMatC= 1.31D-03 BMatP= 5.05D-04
 IDIUse=3 WtCom= 9.73D-01 WtEn= 2.69D-02
 Coeff-Com:  0.539D-01-0.102D+00-0.165D+00 0.424D+00-0.481D+00 0.824D+00
 Coeff-Com:  0.446D+00
 Coeff-En:   0.000D+00 0.000D+00 0.000D+00 0.000D+00 0.000D+00 0.000D+00
 Coeff-En:   0.100D+01
 Coeff:      0.524D-01-0.990D-01-0.160D+00 0.412D+00-0.468D+00 0.802D+00
 Coeff:      0.461D+00
 Gap=     0.159 Goal=   None    Shift=    0.000
 Gap=     0.159 Goal=   None    Shift=    0.000
 RMSDP=2.09D-04 MaxDP=9.41D-03 DE=-2.36D-03 OVMax= 4.45D-02

 Cycle   8  Pass 1  IDiag  1:
 Density matrix breaks symmetry, PCut= 1.00D-07
 Density matrix has no symmetry -- integrals replicated.
 E= -24.9028446501466     Delta-E=       -0.001162085258 Rises=F Damp=F
 DIIS: error= 2.13D-03 at cycle   8 NSaved=   8.
 NSaved= 8 IEnMin= 8 EnMin= -24.9028446501466     IErMin= 8 ErrMin= 2.13D-03
 ErrMax= 2.13D-03  0.00D+00 EMaxC= 1.00D-01 BMatC= 1.61D-04 BMatP= 5.05D-04
 IDIUse=3 WtCom= 9.79D-01 WtEn= 2.13D-02
 Coeff-Com: -0.104D+00 0.200D+00 0.831D-04-0.589D+00 0.953D+00-0.104D+01
 Coeff-Com: -0.481D+00 0.206D+01
 Coeff-En:   0.000D+00 0.000D+00 0.000D+00 0.000D+00 0.000D+00 0.000D+00
 Coeff-En:   0.000D+00 0.100D+01
 Coeff:     -0.102D+00 0.196D+00 0.814D-04-0.576D+00 0.933D+00-0.102D+01
 Coeff:     -0.471D+00 0.204D+01
 Gap=     0.161 Goal=   None    Shift=    0.000
 Gap=     0.161 Goal=   None    Shift=    0.000
 RMSDP=2.00D-04 MaxDP=6.42D-03 DE=-1.16D-03 OVMax= 4.61D-02

 Cycle   9  Pass 1  IDiag  1:
 Density matrix breaks symmetry, PCut= 1.00D-07
 Density matrix has no symmetry -- integrals replicated.
 E= -24.9035201099160     Delta-E=       -0.000675459769 Rises=F Damp=F
 DIIS: error= 1.19D-03 at cycle   9 NSaved=   9.
 NSaved= 9 IEnMin= 9 EnMin= -24.9035201099160     IErMin= 9 ErrMin= 1.19D-03
 ErrMax= 1.19D-03  0.00D+00 EMaxC= 1.00D-01 BMatC= 4.20D-05 BMatP= 1.61D-04
 IDIUse=3 WtCom= 9.88D-01 WtEn= 1.19D-02
 Coeff-Com:  0.861D-02-0.170D-01-0.229D-01 0.963D-02-0.143D+00 0.587D+00
 Coeff-Com:  0.319D+00-0.257D+01 0.283D+01
 Coeff-En:   0.000D+00 0.000D+00 0.000D+00 0.000D+00 0.000D+00 0.000D+00
 Coeff-En:   0.000D+00 0.000D+00 0.100D+01
 Coeff:      0.851D-02-0.168D-01-0.227D-01 0.952D-02-0.141D+00 0.580D+00
 Coeff:      0.315D+00-0.254D+01 0.281D+01
 Gap=     0.163 Goal=   None    Shift=    0.000
 Gap=     0.163 Goal=   None    Shift=    0.000
 RMSDP=2.44D-04 MaxDP=7.93D-03 DE=-6.75D-04 OVMax= 5.56D-02

 Cycle  10  Pass 1  IDiag  1:
 Density matrix breaks symmetry, PCut= 1.00D-07
 Density matrix has no symmetry -- integrals replicated.
 E= -24.9038465996983     Delta-E=       -0.000326489782 Rises=F Damp=F
 DIIS: error= 4.84D-04 at cycle  10 NSaved=  10.
 NSaved=10 IEnMin=10 EnMin= -24.9038465996983     IErMin=10 ErrMin= 4.84D-04
 ErrMax= 4.84D-04  0.00D+00 EMaxC= 1.00D-01 BMatC= 2.20D-05 BMatP= 4.20D-05
 IDIUse=3 WtCom= 9.95D-01 WtEn= 4.84D-03
 Coeff-Com:  0.101D-01-0.197D-01 0.183D-01 0.974D-01-0.149D+00-0.110D+00
 Coeff-Com: -0.405D+00 0.137D+01-0.166D+01 0.185D+01
 Coeff-En:   0.000D+00 0.000D+00 0.000D+00 0.000D+00 0.000D+00 0.000D+00
 Coeff-En:   0.000D+00 0.000D+00 0.000D+00 0.100D+01
 Coeff:      0.101D-01-0.196D-01 0.182D-01 0.970D-01-0.149D+00-0.110D+00
 Coeff:     -0.403D+00 0.136D+01-0.166D+01 0.185D+01
 Gap=     0.164 Goal=   None    Shift=    0.000
 Gap=     0.164 Goal=   None    Shift=    0.000
 RMSDP=1.00D-04 MaxDP=3.48D-03 DE=-3.26D-04 OVMax= 2.28D-02

 Cycle  11  Pass 1  IDiag  1:
 Density matrix breaks symmetry, PCut= 1.00D-07
 Density matrix has no symmetry -- integrals replicated.
 E= -24.9038997195800     Delta-E=       -0.000053119882 Rises=F Damp=F
 DIIS: error= 9.55D-05 at cycle  11 NSaved=  11.
 NSaved=11 IEnMin=11 EnMin= -24.9038997195800     IErMin=11 ErrMin= 9.55D-05
 ErrMax= 9.55D-05  0.00D+00 EMaxC= 1.00D-01 BMatC= 7.94D-07 BMatP= 2.20D-05
 IDIUse=1 WtCom= 1.00D+00 WtEn= 0.00D+00
 Coeff-Com: -0.969D-02 0.191D-01-0.368D-02-0.919D-01 0.192D+00-0.160D+00
 Coeff-Com:  0.153D+00-0.838D-01 0.210D+00-0.113D+01 0.190D+01
 Coeff:     -0.969D-02 0.191D-01-0.368D-02-0.919D-01 0.192D+00-0.160D+00
 Coeff:      0.153D+00-0.838D-01 0.210D+00-0.113D+01 0.190D+01
 Gap=     0.164 Goal=   None    Shift=    0.000
 Gap=     0.164 Goal=   None    Shift=    0.000
 RMSDP=3.81D-05 MaxDP=1.26D-03 DE=-5.31D-05 OVMax= 8.04D-03

 Cycle  12  Pass 1  IDiag  1:
 Density matrix breaks symmetry, PCut= 1.00D-07
 Density matrix has no symmetry -- integrals replicated.
 E= -24.9038973219738     Delta-E=        0.000002397606 Rises=F Damp=F
 DIIS: error= 1.16D-04 at cycle  12 NSaved=  12.
 NSaved=12 IEnMin=11 EnMin= -24.9038997195800     IErMin=11 ErrMin= 9.55D-05
 ErrMax= 1.16D-04  0.00D+00 EMaxC= 1.00D-01 BMatC= 1.28D-06 BMatP= 7.94D-07
 IDIUse=1 WtCom= 1.00D+00 WtEn= 0.00D+00
 Coeff-Com: -0.371D-02 0.706D-02 0.701D-02-0.126D-01 0.181D-01-0.407D-01
 Coeff-Com:  0.867D-02 0.651D-01-0.185D-01 0.989D-01-0.811D+00 0.168D+01
 Coeff:     -0.371D-02 0.706D-02 0.701D-02-0.126D-01 0.181D-01-0.407D-01
 Coeff:      0.867D-02 0.651D-01-0.185D-01 0.989D-01-0.811D+00 0.168D+01
 Gap=     0.164 Goal=   None    Shift=    0.000
 Gap=     0.164 Goal=   None    Shift=    0.000
 RMSDP=9.04D-06 MaxDP=3.52D-04 DE= 2.40D-06 OVMax= 1.25D-03

 Cycle  13  Pass 1  IDiag  1:
 Density matrix breaks symmetry, PCut= 1.00D-07
 Density matrix has no symmetry -- integrals replicated.
 E= -24.9038991996192     Delta-E=       -0.000001877645 Rises=F Damp=F
 DIIS: error= 1.06D-04 at cycle  13 NSaved=  13.
 NSaved=13 IEnMin=11 EnMin= -24.9038997195800     IErMin=11 ErrMin= 9.55D-05
 ErrMax= 1.06D-04  0.00D+00 EMaxC= 1.00D-01 BMatC= 1.27D-06 BMatP= 7.94D-07
 IDIUse=1 WtCom= 1.00D+00 WtEn= 0.00D+00
 Coeff-Com: -0.200D-02 0.411D-02-0.288D-02-0.323D-01 0.936D-01-0.108D+00
 Coeff-Com:  0.373D-01 0.118D+00-0.138D+00-0.244D+00 0.122D+01-0.537D+01
 Coeff-Com:  0.542D+01
 Coeff:     -0.200D-02 0.411D-02-0.288D-02-0.323D-01 0.936D-01-0.108D+00
 Coeff:      0.373D-01 0.118D+00-0.138D+00-0.244D+00 0.122D+01-0.537D+01
 Coeff:      0.542D+01
 Gap=     0.164 Goal=   None    Shift=    0.000
 Gap=     0.164 Goal=   None    Shift=    0.000
 RMSDP=4.34D-05 MaxDP=1.25D-03 DE=-1.88D-06 OVMax= 8.27D-03

 Cycle  14  Pass 1  IDiag  1:
 Density matrix breaks symmetry, PCut= 1.00D-07
 Density matrix has no symmetry -- integrals replicated.
 E= -24.9039070469927     Delta-E=       -0.000007847373 Rises=F Damp=F
 DIIS: error= 4.11D-05 at cycle  14 NSaved=  14.
 NSaved=14 IEnMin=14 EnMin= -24.9039070469927     IErMin=14 ErrMin= 4.11D-05
 ErrMax= 4.11D-05  0.00D+00 EMaxC= 1.00D-01 BMatC= 1.93D-07 BMatP= 7.94D-07
 IDIUse=1 WtCom= 1.00D+00 WtEn= 0.00D+00
 Coeff-Com: -0.367D-04 0.866D-04 0.144D-03 0.825D-03-0.107D-01 0.213D-01
 Coeff-Com:  0.120D-01-0.906D-01 0.117D+00-0.704D-01-0.174D+00 0.176D+01
 Coeff-Com: -0.259D+01 0.203D+01
 Coeff:     -0.367D-04 0.866D-04 0.144D-03 0.825D-03-0.107D-01 0.213D-01
 Coeff:      0.120D-01-0.906D-01 0.117D+00-0.704D-01-0.174D+00 0.176D+01
 Coeff:     -0.259D+01 0.203D+01
 Gap=     0.164 Goal=   None    Shift=    0.000
 Gap=     0.164 Goal=   None    Shift=    0.000
 RMSDP=2.73D-05 MaxDP=8.26D-04 DE=-7.85D-06 OVMax= 4.96D-03

 Cycle  15  Pass 1  IDiag  1:
 Density matrix breaks symmetry, PCut= 1.00D-07
 Density matrix has no symmetry -- integrals replicated.
 E= -24.9039081190594     Delta-E=       -0.000001072067 Rises=F Damp=F
 DIIS: error= 3.21D-05 at cycle  15 NSaved=  15.
 NSaved=15 IEnMin=15 EnMin= -24.9039081190594     IErMin=15 ErrMin= 3.21D-05
 ErrMax= 3.21D-05  0.00D+00 EMaxC= 1.00D-01 BMatC= 8.62D-08 BMatP= 1.93D-07
 IDIUse=1 WtCom= 1.00D+00 WtEn= 0.00D+00
 Coeff-Com:  0.537D-04-0.147D-03 0.283D-03 0.120D-02-0.706D-02 0.110D-01
 Coeff-Com: -0.517D-02-0.130D-01 0.223D-01-0.261D-01 0.241D-01-0.520D-01
 Coeff-Com:  0.224D+00-0.312D+00 0.113D+01
 Coeff:      0.537D-04-0.147D-03 0.283D-03 0.120D-02-0.706D-02 0.110D-01
 Coeff:     -0.517D-02-0.130D-01 0.223D-01-0.261D-01 0.241D-01-0.520D-01
 Coeff:      0.224D+00-0.312D+00 0.113D+01
 Gap=     0.164 Goal=   None    Shift=    0.000
 Gap=     0.164 Goal=   None    Shift=    0.000
 RMSDP=4.42D-06 MaxDP=1.33D-04 DE=-1.07D-06 OVMax= 9.15D-04

 Cycle  16  Pass 1  IDiag  1:
 Density matrix breaks symmetry, PCut= 1.00D-07
 Density matrix has no symmetry -- integrals replicated.
 E= -24.9039082477361     Delta-E=       -0.000000128677 Rises=F Damp=F
 DIIS: error= 2.41D-06 at cycle  16 NSaved=  16.
 NSaved=16 IEnMin=16 EnMin= -24.9039082477361     IErMin=16 ErrMin= 2.41D-06
 ErrMax= 2.41D-06  0.00D+00 EMaxC= 1.00D-01 BMatC= 3.87D-10 BMatP= 8.62D-08
 IDIUse=1 WtCom= 1.00D+00 WtEn= 0.00D+00
 Coeff-Com: -0.148D-04 0.348D-04-0.381D-04-0.204D-03 0.613D-03-0.165D-03
 Coeff-Com:  0.624D-03-0.127D-02 0.837D-03 0.598D-02-0.348D-01 0.119D+00
 Coeff-Com: -0.170D+00 0.117D+00-0.255D+00 0.122D+01
 Coeff:     -0.148D-04 0.348D-04-0.381D-04-0.204D-03 0.613D-03-0.165D-03
 Coeff:      0.624D-03-0.127D-02 0.837D-03 0.598D-02-0.348D-01 0.119D+00
 Coeff:     -0.170D+00 0.117D+00-0.255D+00 0.122D+01
 Gap=     0.164 Goal=   None    Shift=    0.000
 Gap=     0.164 Goal=   None    Shift=    0.000
 RMSDP=8.31D-07 MaxDP=2.63D-05 DE=-1.29D-07 OVMax= 1.46D-04

 Cycle  17  Pass 1  IDiag  1:
 Density matrix breaks symmetry, PCut= 1.00D-07
 Density matrix has no symmetry -- integrals replicated.
 E= -24.9039082492534     Delta-E=       -0.000000001517 Rises=F Damp=F
 DIIS: error= 1.42D-06 at cycle  17 NSaved=  17.
 NSaved=17 IEnMin=17 EnMin= -24.9039082492534     IErMin=17 ErrMin= 1.42D-06
 ErrMax= 1.42D-06  0.00D+00 EMaxC= 1.00D-01 BMatC= 1.60D-10 BMatP= 3.87D-10
 IDIUse=1 WtCom= 1.00D+00 WtEn= 0.00D+00
 Coeff-Com: -0.116D-04 0.211D-04-0.869D-05-0.709D-04 0.192D-03-0.329D-03
 Coeff-Com:  0.887D-04 0.727D-03-0.103D-02-0.111D-02 0.125D-01-0.486D-01
 Coeff-Com:  0.704D-01-0.516D-01 0.928D-01-0.307D+00 0.123D+01
 Coeff:     -0.116D-04 0.211D-04-0.869D-05-0.709D-04 0.192D-03-0.329D-03
 Coeff:      0.887D-04 0.727D-03-0.103D-02-0.111D-02 0.125D-01-0.486D-01
 Coeff:      0.704D-01-0.516D-01 0.928D-01-0.307D+00 0.123D+01
 Gap=     0.164 Goal=   None    Shift=    0.000
 Gap=     0.164 Goal=   None    Shift=    0.000
 RMSDP=1.28D-07 MaxDP=4.27D-06 DE=-1.52D-09 OVMax= 2.29D-05

 Cycle  18  Pass 1  IDiag  1:
 Density matrix breaks symmetry, PCut= 1.00D-07
 Density matrix has no symmetry -- integrals replicated.
 E= -24.9039082494757     Delta-E=       -0.000000000222 Rises=F Damp=F
 DIIS: error= 1.83D-07 at cycle  18 NSaved=  18.
 NSaved=18 IEnMin=18 EnMin= -24.9039082494757     IErMin=18 ErrMin= 1.83D-07
 ErrMax= 1.83D-07  0.00D+00 EMaxC= 1.00D-01 BMatC= 2.98D-12 BMatP= 1.60D-10
 IDIUse=1 WtCom= 1.00D+00 WtEn= 0.00D+00
 Coeff-Com:  0.816D-06-0.139D-05-0.256D-05 0.432D-05-0.555D-04 0.135D-03
 Coeff-Com:  0.908D-04-0.596D-03 0.792D-03-0.735D-03-0.751D-03 0.881D-02
 Coeff-Com: -0.151D-01 0.117D-01-0.159D-01 0.112D-01-0.180D+00 0.118D+01
 Coeff:      0.816D-06-0.139D-05-0.256D-05 0.432D-05-0.555D-04 0.135D-03
 Coeff:      0.908D-04-0.596D-03 0.792D-03-0.735D-03-0.751D-03 0.881D-02
 Coeff:     -0.151D-01 0.117D-01-0.159D-01 0.112D-01-0.180D+00 0.118D+01
 Gap=     0.164 Goal=   None    Shift=    0.000
 Gap=     0.164 Goal=   None    Shift=    0.000
 RMSDP=5.44D-08 MaxDP=1.81D-06 DE=-2.22D-10 OVMax= 9.22D-06

 Cycle  19  Pass 1  IDiag  1:
 Density matrix breaks symmetry, PCut= 1.00D-07
 Density matrix has no symmetry -- integrals replicated.
 E= -24.9039082494737     Delta-E=        0.000000000002 Rises=F Damp=F
 DIIS: error= 1.93D-07 at cycle  19 NSaved=  19.
 NSaved=19 IEnMin=18 EnMin= -24.9039082494757     IErMin=18 ErrMin= 1.83D-07
 ErrMax= 1.93D-07  0.00D+00 EMaxC= 1.00D-01 BMatC= 3.35D-12 BMatP= 2.98D-12
 IDIUse=1 WtCom= 1.00D+00 WtEn= 0.00D+00
 Coeff-Com:  0.657D-06-0.124D-05 0.450D-06 0.393D-05-0.731D-05-0.246D-05
 Coeff-Com: -0.377D-04 0.935D-04-0.111D-03 0.140D-03-0.136D-03 0.363D-03
 Coeff-Com: -0.534D-03 0.154D-02-0.529D-02 0.107D-01-0.103D-01-0.344D+00
 Coeff-Com:  0.135D+01
 Coeff:      0.657D-06-0.124D-05 0.450D-06 0.393D-05-0.731D-05-0.246D-05
 Coeff:     -0.377D-04 0.935D-04-0.111D-03 0.140D-03-0.136D-03 0.363D-03
 Coeff:     -0.534D-03 0.154D-02-0.529D-02 0.107D-01-0.103D-01-0.344D+00
 Coeff:      0.135D+01
 Gap=     0.164 Goal=   None    Shift=    0.000
 Gap=     0.164 Goal=   None    Shift=    0.000
 RMSDP=3.39D-08 MaxDP=9.86D-07 DE= 2.01D-12 OVMax= 6.73D-06

 Cycle  20  Pass 1  IDiag  1:
 Density matrix breaks symmetry, PCut= 1.00D-07
 Density matrix has no symmetry -- integrals replicated.
 E= -24.9039082494801     Delta-E=       -0.000000000006 Rises=F Damp=F
 DIIS: error= 1.02D-08 at cycle  20 NSaved=  20.
 NSaved=20 IEnMin=20 EnMin= -24.9039082494801     IErMin=20 ErrMin= 1.02D-08
 ErrMax= 1.02D-08  0.00D+00 EMaxC= 1.00D-01 BMatC= 4.73D-15 BMatP= 2.98D-12
 IDIUse=1 WtCom= 1.00D+00 WtEn= 0.00D+00
 Large coefficients: NSaved= 20 BigCof=    0.00 CofMax=   10.00 Det=-2.75D-15
 Inversion failed.  Reducing to 19 matrices.
 Large coefficients: NSaved= 19 BigCof=    0.00 CofMax=   10.00 Det=-2.77D-15
 Inversion failed.  Reducing to 18 matrices.
 Large coefficients: NSaved= 18 BigCof=    0.00 CofMax=   10.00 Det=-2.77D-15
 Inversion failed.  Reducing to 17 matrices.
 Large coefficients: NSaved= 17 BigCof=    0.00 CofMax=   10.00 Det=-2.87D-15
 Inversion failed.  Reducing to 16 matrices.
 Large coefficients: NSaved= 16 BigCof=    0.00 CofMax=   10.00 Det=-3.06D-15
 Inversion failed.  Reducing to 15 matrices.
 Coeff-Com: -0.223D-06 0.374D-05-0.149D-04 0.131D-04 0.138D-04-0.439D-04
 Coeff-Com:  0.154D-04 0.149D-03-0.660D-03 0.332D-02-0.692D-02-0.250D-03
 Coeff-Com:  0.895D-01-0.671D+00 0.159D+01
 Coeff:     -0.223D-06 0.374D-05-0.149D-04 0.131D-04 0.138D-04-0.439D-04
 Coeff:      0.154D-04 0.149D-03-0.660D-03 0.332D-02-0.692D-02-0.250D-03
 Coeff:      0.895D-01-0.671D+00 0.159D+01
 Gap=     0.164 Goal=   None    Shift=    0.000
 Gap=     0.164 Goal=   None    Shift=    0.000
 RMSDP=2.24D-09 MaxDP=7.52D-08 DE=-6.39D-12 OVMax= 4.95D-07

 Density matrix breaks symmetry, PCut= 1.00D-07
 Density matrix has no symmetry -- integrals replicated.
 SCF Done:  E(UHF) =  -24.9039082495     A.U. after   20 cycles
            NFock= 20  Conv=0.22D-08     -V/T= 2.0059
 <Sx>= 0.0000 <Sy>= 0.0000 <Sz>= 0.0000 <S**2>= 0.2059 S= 0.1752
 <L.S>=  0.00000000000    
 KE= 2.475752319712D+01 PE=-5.841876328280D+01 EE= 8.095860322543D+00
 Annihilation of the first spin contaminant:
 S**2 before annihilation     0.2059,   after     0.0034
 Leave Link  502 at Sun May 22 18:31:54 2022, MaxMem=   104857600 cpu:               4.0 elap:               4.0
 (Enter /apps/software/g16/l601.exe)
 Copying SCF densities to generalized density rwf, IOpCl= 1 IROHF=0.
 SCF density gives NOpUse=  1 NOpAll=  4.
 Marking SCF density as not fully symmetric.

 **********************************************************************

            Population analysis using the SCF density.

 **********************************************************************

 Orbital symmetries:
 Alpha Orbitals:
       Occupied  (SG) (?A) (?A)
       Virtual   (?A) (?A) (?A) (?A) (?A) (?A) (SG) (SG) (?B) (?B)
                 (?B) (?B) (SG) (?C) (?C) (?C) (?C) (?C) (?C) (SG)
                 (?D) (?D) (?D) (?D) (?E) (?E) (?E) (?E) (?E) (?E)
                 (?E) (SG) (SG) (DLTA) (DLTA) (PI) (PI) (SG) (PI)
                 (PI) (?F) (?F) (?F) (?F) (?G) (?G) (?G) (?G) (?G)
                 (?G) (?G) (?G) (?G) (?G) (?G) (?G) (?G) (?G) (?H)
                 (?H) (?H) (?H) (?H) (?H) (?H) (SG) (PHI) (PHI)
                 (DLTA) (DLTA) (PI) (PI) (SG) (SG) (DLTA) (DLTA)
                 (PI) (PI) (SG) (PI) (PI) (SG) (?I) (?I) (?I) (?J)
                 (?J) (?J) (?J) (?J) (?J) (?J) (?J) (?J) (?J) (?J)
                 (?J) (?J) (SG) (?K) (?K) (?K) (?K) (?K) (?K) (SG)
                 (PHI) (PHI) (DLTA) (DLTA) (PI) (PI) (SG) (SG)
                 (PI) (PI) (SG) (DLTA) (DLTA) (PI) (PI) (SG) (SG)
 Beta  Orbitals:
       Occupied  (SG) (?A) (?A)
       Virtual   (?A) (?A) (?A) (?A) (?A) (?A) (SG) (SG) (?B) (?B)
                 (?B) (?B) (SG) (?C) (?C) (?C) (?C) (?C) (?C) (SG)
                 (?D) (?D) (?D) (?D) (?E) (?E) (?E) (?E) (?E) (?E)
                 (?E) (SG) (SG) (DLTA) (DLTA) (PI) (PI) (SG) (PI)
                 (PI) (?F) (?F) (?F) (?F) (?G) (?G) (?G) (?G) (?G)
                 (?G) (?G) (?G) (?G) (?G) (?G) (?G) (?G) (?G) (?H)
                 (?H) (?H) (?H) (?H) (?H) (?H) (SG) (PHI) (PHI)
                 (DLTA) (DLTA) (PI) (PI) (SG) (SG) (DLTA) (DLTA)
                 (PI) (PI) (SG) (PI) (PI) (SG) (?I) (?I) (?I) (?J)
                 (?J) (?J) (?J) (?J) (?J) (?J) (?J) (?J) (?J) (?J)
                 (?J) (?J) (SG) (?K) (?K) (?K) (?K) (?K) (?K) (SG)
                 (PHI) (PHI) (DLTA) (DLTA) (PI) (PI) (SG) (SG)
                 (PI) (PI) (SG) (DLTA) (DLTA) (PI) (PI) (SG) (SG)
 Unable to determine electronic state:  an orbital has unidentified symmetry.
 Alpha  occ. eigenvalues --   -7.87882  -0.61457  -0.24136
 Alpha virt. eigenvalues --   -0.07713  -0.03962  -0.03022   0.02588   0.04478
 Alpha virt. eigenvalues --    0.04542   0.06464   0.09434   0.12240   0.12241
 Alpha virt. eigenvalues --    0.12932   0.12978   0.15821   0.24119   0.24344
 Alpha virt. eigenvalues --    0.24879   0.25773   0.25884   0.29482   0.33896
 Alpha virt. eigenvalues --    0.42157   0.42157   0.42787   0.42787   0.43940
 Alpha virt. eigenvalues --    0.43958   0.44253   0.44600   0.44691   0.45692
 Alpha virt. eigenvalues --    0.45801   0.47484   0.56273   0.68989   0.68989
 Alpha virt. eigenvalues --    0.73994   0.74016   0.81811   0.86997   0.87003
 Alpha virt. eigenvalues --    0.95135   0.95146   0.95828   0.99850   1.29910
 Alpha virt. eigenvalues --    1.30368   1.30368   1.30940   1.30969   1.31207
 Alpha virt. eigenvalues --    1.31212   1.31831   1.31837   1.32051   1.32211
 Alpha virt. eigenvalues --    1.32865   1.33036   1.33344   1.35741   1.35741
 Alpha virt. eigenvalues --    1.36763   1.36773   1.37394   1.39350   1.39588
 Alpha virt. eigenvalues --    1.47961   1.64212   1.64212   1.64768   1.64768
 Alpha virt. eigenvalues --    1.68625   1.68645   1.70391   1.83147   2.55283
 Alpha virt. eigenvalues --    2.55283   2.58579   2.58584   2.66292   2.68193
 Alpha virt. eigenvalues --    2.68196   2.76644   3.59144   3.59340   3.63058
 Alpha virt. eigenvalues --    3.81278   3.81278   3.82001   3.82003   3.82163
 Alpha virt. eigenvalues --    3.82165   3.82839   3.82860   3.83191   3.83433
 Alpha virt. eigenvalues --    3.83911   3.84044   3.84219   3.90966   3.96301
 Alpha virt. eigenvalues --    3.96301   3.97412   3.97414   3.99457   3.99774
 Alpha virt. eigenvalues --    4.04473   6.64859   6.64859   6.65021   6.65021
 Alpha virt. eigenvalues --    6.65914   6.65916   6.67602   7.54889   8.04040
 Alpha virt. eigenvalues --    8.04041   8.08315   8.48573   8.48573   8.50822
 Alpha virt. eigenvalues --    8.50823   8.57773  12.90706
  Beta  occ. eigenvalues --   -7.87882  -0.61457  -0.24136
  Beta virt. eigenvalues --   -0.07713  -0.03962  -0.03022   0.02588   0.04478
  Beta virt. eigenvalues --    0.04542   0.06464   0.09434   0.12240   0.12241
  Beta virt. eigenvalues --    0.12932   0.12978   0.15821   0.24119   0.24344
  Beta virt. eigenvalues --    0.24879   0.25773   0.25884   0.29482   0.33896
  Beta virt. eigenvalues --    0.42157   0.42157   0.42787   0.42787   0.43940
  Beta virt. eigenvalues --    0.43958   0.44253   0.44600   0.44691   0.45692
  Beta virt. eigenvalues --    0.45801   0.47484   0.56273   0.68989   0.68989
  Beta virt. eigenvalues --    0.73994   0.74016   0.81811   0.86997   0.87003
  Beta virt. eigenvalues --    0.95135   0.95146   0.95828   0.99850   1.29910
  Beta virt. eigenvalues --    1.30368   1.30368   1.30940   1.30969   1.31207
  Beta virt. eigenvalues --    1.31212   1.31831   1.31837   1.32051   1.32211
  Beta virt. eigenvalues --    1.32865   1.33036   1.33344   1.35741   1.35741
  Beta virt. eigenvalues --    1.36763   1.36773   1.37394   1.39350   1.39588
  Beta virt. eigenvalues --    1.47961   1.64212   1.64212   1.64768   1.64768
  Beta virt. eigenvalues --    1.68625   1.68645   1.70391   1.83147   2.55283
  Beta virt. eigenvalues --    2.55283   2.58579   2.58584   2.66292   2.68193
  Beta virt. eigenvalues --    2.68196   2.76644   3.59144   3.59340   3.63058
  Beta virt. eigenvalues --    3.81278   3.81278   3.82001   3.82003   3.82163
  Beta virt. eigenvalues --    3.82165   3.82839   3.82860   3.83191   3.83433
  Beta virt. eigenvalues --    3.83911   3.84044   3.84219   3.90966   3.96301
  Beta virt. eigenvalues --    3.96301   3.97412   3.97414   3.99457   3.99774
  Beta virt. eigenvalues --    4.04473   6.64859   6.64859   6.65021   6.65021
  Beta virt. eigenvalues --    6.65914   6.65916   6.67602   7.54889   8.04040
  Beta virt. eigenvalues --    8.04041   8.08315   8.48573   8.48573   8.50822
  Beta virt. eigenvalues --    8.50823   8.57773  12.90706
          Condensed to atoms (all electrons):
               1          2
     1  B    4.511396   0.122839
     2  H    0.122839   1.242926
          Atomic-Atomic Spin Densities.
               1          2
     1  B    0.000000   0.000000
     2  H    0.000000  -0.000000
 Mulliken charges and spin densities:
               1          2
     1  B    0.365765   0.000000
     2  H   -0.365765  -0.000000
 Sum of Mulliken charges =  -0.00000  -0.00000
 Mulliken charges and spin densities with hydrogens summed into heavy atoms:
               1          2
     1  B   -0.000000  -0.000000
 Electronic spatial extent (au):  <R**2>=             81.9480
 Charge=             -0.0000 electrons
 Dipole moment (field-independent basis, Debye):
    X=             -0.0000    Y=             -0.0000    Z=              7.7145  Tot=              7.7145
 Quadrupole moment (field-independent basis, Debye-Ang):
   XX=             -9.4688   YY=             -9.0431   ZZ=            -27.6683
   XY=              0.0000   XZ=              0.0000   YZ=              0.0000
 Traceless Quadrupole moment (field-independent basis, Debye-Ang):
   XX=              5.9246   YY=              6.3503   ZZ=            -12.2749
   XY=              0.0000   XZ=              0.0000   YZ=              0.0000
 Octapole moment (field-independent basis, Debye-Ang**2):
  XXX=             -0.0000  YYY=             -0.0000  ZZZ=             74.8869  XYY=             -0.0000
  XXY=              0.0000  XXZ=              8.6826  XZZ=              0.0000  YZZ=             -0.0000
  YYZ=              8.9831  XYZ=              0.0000
 Hexadecapole moment (field-independent basis, Debye-Ang**3):
 XXXX=            -21.3637 YYYY=            -19.7293 ZZZZ=           -415.8984 XXXY=             -0.0000
 XXXZ=              0.0000 YYYX=              0.0000 YYYZ=              0.0000 ZZZX=              0.0000
 ZZZY=              0.0000 XXYY=             -6.8494 XXZZ=            -47.3742 YYZZ=            -46.8664
 XXYZ=             -0.0000 YYXZ=              0.0000 ZZXY=             -0.0000
 N-N= 6.614715136500D-01 E-N=-5.841876342599D+01  KE= 2.475752319712D+01
 Symmetry A1   KE= 2.468107274641D+01
 Symmetry A2   KE= 1.242859394587D-29
 Symmetry B1   KE= 7.645045071194D-02
 Symmetry B2   KE= 4.425620411211D-29
 Symmetry A1   SP=-4.216567411293D-09
 Symmetry A2   SP=-4.007549699025D-31
 Symmetry B1   SP= 4.216556543541D-09
 Symmetry B2   SP=-4.191000755890D-30
                          Isotropic Fermi Contact Couplings
        Atom                 a.u.       MegaHertz       Gauss      10(-4) cm-1
     1  B(11)             -0.00000      -0.00000      -0.00000      -0.00000
     2  H(1)              -0.00000      -0.00001      -0.00000      -0.00000
 --------------------------------------------------------
       Center         ----  Spin Dipole Couplings  ----
                      3XX-RR        3YY-RR        3ZZ-RR
 --------------------------------------------------------
     1   Atom       -0.000000     -0.000000      0.000000
     2   Atom       -0.000000     -0.000000      0.000000
 --------------------------------------------------------
                        XY            XZ            YZ
 --------------------------------------------------------
     1   Atom        0.000000     -0.166259      0.000000
     2   Atom        0.000000      0.001004      0.000000
 --------------------------------------------------------


 ---------------------------------------------------------------------------------
              Anisotropic Spin Dipole Couplings in Principal Axis System
 ---------------------------------------------------------------------------------

       Atom             a.u.   MegaHertz   Gauss  10(-4) cm-1        Axes

              Baa    -0.1663   -28.466   -10.157    -9.495  0.7071 -0.0000  0.7071
     1 B(11)  Bbb    -0.0000    -0.000    -0.000    -0.000  0.0000  1.0000  0.0000
              Bcc     0.1663    28.466    10.157     9.495  0.7071  0.0000 -0.7071
 
              Baa    -0.0010    -0.536    -0.191    -0.179  0.7071 -0.0000 -0.7071
     2 H(1)   Bbb    -0.0000    -0.000    -0.000    -0.000  0.0000  1.0000 -0.0000
              Bcc     0.0010     0.536     0.191     0.179  0.7071  0.0000  0.7071
 

 ---------------------------------------------------------------------------------

 No NMR shielding tensors so no spin-rotation constants.
 Leave Link  601 at Sun May 22 18:31:54 2022, MaxMem=   104857600 cpu:               0.2 elap:               0.2
 (Enter /apps/software/g16/l801.exe)
 Range of M.O.s used for correlation:     1   126
 NBasis=   126 NAE=     3 NBE=     3 NFC=     0 NFV=     0
 NROrb=    126 NOA=     3 NOB=     3 NVA=   123 NVB=   123
 Leave Link  801 at Sun May 22 18:31:54 2022, MaxMem=   104857600 cpu:               0.0 elap:               0.0
 (Enter /apps/software/g16/l914.exe)
 UHF ground state
 Doing stability rather than CIS.
 Keep R1 and R2 ints in memory in symmetry-blocked form, NReq=40144005.
 FoFCou: FMM=F IPFlag=           0 FMFlag=           0 FMFlg1=           0
         NFxFlg=           0 DoJE=F BraDBF=F KetDBF=F FulRan=T
         wScrn=  0.000000 ICntrl=       600 IOpCl=  0 I1Cent=           0 NGrid=           0
         NMat0=    1 NMatS0=   8001 NMatT0=    0 NMatD0=    1 NMtDS0=    0 NMtDT0=    0
 Petite list used in FoFCou.
 MDV=   104857600 DFT=F DoStab=T Mixed=F DoRPA=F DoScal=F NonHer=F
 Making orbital integer symmetry assigments:
 Orbital symmetries:
 Alpha Orbitals:
       Occupied  (SG) (?A) (?A)
       Virtual   (?A) (?A) (?A) (?A) (?A) (?A) (SG) (SG) (?B) (?B)
                 (?B) (?B) (SG) (?C) (?C) (?C) (?C) (?C) (?C) (SG)
                 (?D) (?D) (?D) (?D) (?E) (?E) (?E) (?E) (?E) (?E)
                 (?E) (SG) (SG) (DLTA) (DLTA) (PI) (PI) (SG) (PI)
                 (PI) (?F) (?F) (?F) (?F) (?G) (?G) (?G) (?G) (?G)
                 (?G) (?G) (?G) (?G) (?G) (?G) (?G) (?G) (?G) (?H)
                 (?H) (?H) (?H) (?H) (?H) (?H) (SG) (PHI) (PHI)
                 (DLTA) (DLTA) (PI) (PI) (SG) (SG) (DLTA) (DLTA)
                 (PI) (PI) (SG) (PI) (PI) (SG) (?I) (?I) (?I) (?J)
                 (?J) (?J) (?J) (?J) (?J) (?J) (?J) (?J) (?J) (?J)
                 (?J) (?J) (SG) (?K) (?K) (?K) (?K) (?K) (?K) (SG)
                 (PHI) (PHI) (DLTA) (DLTA) (PI) (PI) (SG) (SG)
                 (PI) (PI) (SG) (DLTA) (DLTA) (PI) (PI) (SG) (SG)
 Beta  Orbitals:
       Occupied  (SG) (?A) (?A)
       Virtual   (?A) (?A) (?A) (?A) (?A) (?A) (SG) (SG) (?B) (?B)
                 (?B) (?B) (SG) (?C) (?C) (?C) (?C) (?C) (?C) (SG)
                 (?D) (?D) (?D) (?D) (?E) (?E) (?E) (?E) (?E) (?E)
                 (?E) (SG) (SG) (DLTA) (DLTA) (PI) (PI) (SG) (PI)
                 (PI) (?F) (?F) (?F) (?F) (?G) (?G) (?G) (?G) (?G)
                 (?G) (?G) (?G) (?G) (?G) (?G) (?G) (?G) (?G) (?H)
                 (?H) (?H) (?H) (?H) (?H) (?H) (SG) (PHI) (PHI)
                 (DLTA) (DLTA) (PI) (PI) (SG) (SG) (DLTA) (DLTA)
                 (PI) (PI) (SG) (PI) (PI) (SG) (?I) (?I) (?I) (?J)
                 (?J) (?J) (?J) (?J) (?J) (?J) (?J) (?J) (?J) (?J)
                 (?J) (?J) (SG) (?K) (?K) (?K) (?K) (?K) (?K) (SG)
                 (PHI) (PHI) (DLTA) (DLTA) (PI) (PI) (SG) (SG)
                 (PI) (PI) (SG) (DLTA) (DLTA) (PI) (PI) (SG) (SG)
    12 initial guesses have been made.
 Convergence on wavefunction:    0.001000000000000
 Davidson Disk Diagonalization:  ConvIn= 1.00D-03 SkipCon=T Conv= 1.00D-03.
 Max sub-space:  1476 roots to seek:    12 dimension of matrix:          738
 Iteration     1 Dimension    12 NMult     0 NNew     12
 CISAX will form    12 AO SS matrices at one time.
 NMat=    12 NSing=    12 JSym2X= 2.
 New state      1 was old state      5
 Excitation Energies [eV] at current iteration:
 Root      1 :    -4.743926551642668
 Root      2 :     0.662928524365788
 Root      3 :     1.049637791993842
 Root      4 :     1.125153537247353
 Root      5 :     1.159936394333058
 Root      6 :     4.370701405255585
 Root      7 :     4.459161131486573
 Root      8 :     5.232956899198445
 Root      9 :     5.287329587344943
 Root     10 :     5.298592012129566
 Root     11 :     5.364889904757413
 Root     12 :     7.919097253495350
 Iteration     2 Dimension    24 NMult    12 NNew     12
 CISAX will form    12 AO SS matrices at one time.
 NMat=    12 NSing=    12 JSym2X= 2.
 Root      1 not converged, maximum delta is    0.097469434355993
 Excitation Energies [eV] at current iteration:
 Root      1 :    -6.452227136100921   Change is   -1.708300584458254
 Root      2 :     0.133776775956228   Change is   -0.529151748409559
 Root      3 :     0.594854406218243   Change is   -0.530299131029110
 Root      4 :     0.632132723435849   Change is   -0.527803670897209
 Root      5 :     0.647700313540545   Change is   -0.401937478453297
 Root      6 :     4.119187985344132   Change is   -0.251513419911453
 Root      7 :     4.150288520327625   Change is   -0.308872611158947
 Root      8 :     4.707849540177011   Change is   -0.579480047167932
 Root      9 :     4.725787643260362   Change is   -0.507169255938083
 Root     10 :     4.794195425463115   Change is   -0.504396586666451
 Root     11 :     4.878297800635345   Change is   -0.486592104122068
 Root     12 :     5.503199005925064   Change is   -2.415898247570286
 Iteration     3 Dimension    27 NMult    24 NNew      3
 CISAX will form     3 AO SS matrices at one time.
 NMat=     3 NSing=     3 JSym2X= 2.
 Root      1 not converged, maximum delta is    0.013789091574671
 Excitation Energies [eV] at current iteration:
 Root      1 :    -6.515891228416350   Change is   -0.063664092315429
 Root      2 :     0.105375422982695   Change is   -0.028401352973533
 Root      3 :     0.556315236069454   Change is   -0.038539170148789
 Iteration     4 Dimension    30 NMult    27 NNew      3
 CISAX will form     3 AO SS matrices at one time.
 NMat=     3 NSing=     3 JSym2X= 2.
 Root      1 not converged, maximum delta is    0.001841392624198
 Excitation Energies [eV] at current iteration:
 Root      1 :    -6.517118352228938   Change is   -0.001227123812588
 Root      2 :     0.018222340259075   Change is   -0.087153082723621
 Root      3 :     0.518652954999808   Change is   -0.037662281069646
 Iteration     5 Dimension    33 NMult    30 NNew      3
 CISAX will form     3 AO SS matrices at one time.
 NMat=     3 NSing=     3 JSym2X= 2.
 Root      1 has converged.
 Excitation Energies [eV] at current iteration:
 Root      1 :    -6.517131228024093   Change is   -0.000012875795156
 Root      2 :     0.001048202645527   Change is   -0.017174137613548
 Root      3 :     0.511435304904790   Change is   -0.007217650095018
 Convergence achieved on expansion vectors.
 ***********************************************************************
 Stability analysis using <AA,BB:AA,BB> singles matrix:
 ***********************************************************************
 1PDM for each excited state written to RWF  633
 Ground to excited state transition densities written to RWF  633

 Eigenvectors of the stability matrix:
 
 Excited state symmetry could not be determined.
 Eigenvector   1:  2.829-?Sym  Eigenvalue=-0.2395002  <S**2>=1.751
      3A ->  4A        0.65837
      3A ->  6A        0.13461
      3A ->  7A       -0.10409
      3B ->  4B       -0.65837
      3B ->  6B        0.13461
      3B ->  7B        0.10409
 The wavefunction has an internal instability.
 Leave Link  914 at Sun May 22 18:31:58 2022, MaxMem=   104857600 cpu:               4.0 elap:               4.0
 (Enter /apps/software/g16/l508.exe)
 Keep R1 and R2 ints in memory in symmetry-blocked form, NReq=40144065.
 FoFCou: FMM=F IPFlag=           0 FMFlag=           0 FMFlg1=           0
         NFxFlg=           0 DoJE=F BraDBF=F KetDBF=F FulRan=T
         wScrn=  0.000000 ICntrl=       600 IOpCl=  0 I1Cent=           0 NGrid=           0
         NMat0=    1 NMatS0=   8001 NMatT0=    0 NMatD0=    1 NMtDS0=    0 NMtDT0=    0
 Petite list used in FoFCou.
 Tight linear equation convergence will be used.
 UHF wavefunction.
 Quadratic Convergence SCF Method.
 Line search only if initial step raises energy.
 Perform preliminary linear searches along instability eigenvector.
     ILin= 1 X=0.000D+00 Y=-2.490390824948D+01 DE= 0.00D+00
     ILin= 2 X=1.000D-01 Y=-2.490628354022D+01 DE=-2.38D-03
     ILin= 3 X=1.414D-01 Y=-2.490861964559D+01 DE=-4.71D-03
     ILin= 4 X=2.000D-01 Y=-2.491317560734D+01 DE=-9.27D-03
     ILin= 5 X=2.828D-01 Y=-2.492183155885D+01 DE=-1.79D-02
     ILin= 6 X=4.000D-01 Y=-2.493739022406D+01 DE=-3.35D-02
     ILin= 7 X=5.657D-01 Y=-2.496203567784D+01 DE=-5.81D-02
     ILin= 8 X=8.000D-01 Y=-2.498940249181D+01 DE=-8.55D-02
     ILin= 9 X=1.131D+00 Y=-2.498292277716D+01 DE=-7.90D-02
     No minimum found in polynomial.
     ILin=10 X=1.600D+00 Y=-2.487033382833D+01 DE= 3.36D-02
     An  expanding polynomial of degree 10 produced  0.9373
 Iteration F X= 9.373D-01 EE=-2.499469552649402D+01
     ILin= 1 X=0.000D+00 Y=-2.490390824948D+01 DE= 0.00D+00
     ILin= 2 X=1.000D-01 Y=-2.490628353876D+01 DE=-2.38D-03
     ILin= 3 X=1.414D-01 Y=-2.490861964402D+01 DE=-4.71D-03
 The two search directions are symmetric.
 Iteration B X= 9.373D-01 EE=-2.499469552649402D+01
 Take forward step, X= 9.373D-01 Step= 9.373D-01
 Iteration   1 EE= -24.9946955447373                                    Grad=1.081D-01 Max rot=    2.5065 deg.
 Gradient too large for Newton-Raphson -- use scaled steepest descent instead.
 Alpha Gap=     0.295 HL deriv= 1.48D-01
  Beta Gap=     0.495 HL deriv= 7.75D-02
     ILin= 1 X=0.000D+00 Y=-2.499469554474D+01 DE= 0.00D+00 F= -3.87D-02
     ILin= 2 X=3.000D-01 Y=-2.500544908478D+01 DE=-1.08D-02 F= -3.28D-02
     ILin= 3 X=4.000D-01 Y=-2.500862401529D+01 DE=-1.39D-02 F= -3.07D-02
     ILin= 4 X=7.000D-01 Y=-2.501680268385D+01 DE=-2.21D-02 F= -2.37D-02
     ILin= 5 X=1.000D+00 Y=-2.502280500045D+01 DE=-2.81D-02 F= -1.62D-02
     ILin= 6 X=1.400D+00 Y=-2.502712849981D+01 DE=-3.24D-02 F= -5.31D-03
     ILin= 7 X=2.100D+00 Y=-2.502382683672D+01 DE=-2.91D-02 F=  1.49D-02
     An  expanding polynomial of degree  7 produced  1.5875
 Iteration   2 EE= -25.0276282786037     Delta-E=       -0.032932733866 Grad=4.835D-02 Max rot=    0.9615 deg.
 Gradient too large for Newton-Raphson -- use scaled steepest descent instead.
 Alpha Gap=     0.357 HL deriv= 3.85D-02
  Beta Gap=     0.561 HL deriv= 2.99D-02
     ILin= 1 X=0.000D+00 Y=-2.502762827860D+01 DE= 0.00D+00 F= -6.18D-03
     ILin= 2 X=7.000D-01 Y=-2.503085386278D+01 DE=-3.23D-03 F= -3.01D-03
     ILin= 3 X=1.300D+00 Y=-2.503181626737D+01 DE=-4.19D-03 F= -1.84D-04
     Reject lnstep minimum 1.628D+00 FVal=-2.503189560572D+01 Lims=  7.00D-01  1.30D+00
     ILin= 4 X=2.400D+00 Y=-2.502909014367D+01 DE=-1.46D-03 F=  5.17D-03
     An  expanding polynomial of degree  4 produced  1.3394
     Minimum is close to point  3 DX=  3.94D-02 DF= -3.71D-06 DXR=  2.94D-02 DFR=  8.86D-04 which will be used.
 Iteration   3 EE= -25.0318162673681     Delta-E=       -0.004187988764 Grad=1.875D-02 Max rot=    0.3171 deg.
 Gradient too large for Newton-Raphson -- use scaled steepest descent instead.
 Alpha Gap=     0.367 HL deriv= 1.25D-02
  Beta Gap=     0.573 HL deriv= 5.02D-03
     ILin= 1 X=0.000D+00 Y=-2.503181626737D+01 DE= 0.00D+00 F= -8.93D-04
     ILin= 2 X=1.500D+00 Y=-2.503252975988D+01 DE=-7.13D-04 F= -5.52D-05
     Reject lnstep minimum 1.527D+00 FVal=-2.503253026095D+01 Lims=  0.00D+00  1.50D+00
     ILin= 3 X=2.900D+00 Y=-2.503205030938D+01 DE=-2.34D-04 F=  7.42D-04
     An  expanding polynomial of degree  3 produced  1.5930
     Minimum is close to point  2 DX=  9.30D-02 DF= -2.44D-06 DXR=  5.84D-02 DFR=  3.42D-03 which will be used.
 Iteration   4 EE= -25.0325297598821     Delta-E=       -0.000713492514 Grad=9.036D-03 Max rot=    0.1643 deg.
 QCNR:  CnvC1=2.72D-09 CnvC2=2.72D-08
 LinEq1:  Iter=  0 NonCon=     1 RMS=4.43D-04 Max=4.94D-03 NDo=     1
 AX will form     1 AO Fock derivatives at one time.
 LinEq1:  Iter=  1 NonCon=     1 RMS=1.24D-04 Max=1.17D-03 NDo=     1
 LinEq1:  Iter=  2 NonCon=     1 RMS=3.43D-05 Max=3.32D-04 NDo=     1
 LinEq1:  Iter=  3 NonCon=     1 RMS=4.31D-06 Max=4.37D-05 NDo=     1
 LinEq1:  Iter=  4 NonCon=     1 RMS=8.12D-07 Max=9.29D-06 NDo=     1
 LinEq1:  Iter=  5 NonCon=     1 RMS=1.63D-07 Max=1.83D-06 NDo=     1
 LinEq1:  Iter=  6 NonCon=     1 RMS=2.87D-08 Max=2.39D-07 NDo=     1
 LinEq1:  Iter=  7 NonCon=     1 RMS=8.23D-09 Max=1.23D-07 NDo=     1
 LinEq1:  Iter=  8 NonCon=     0 RMS=1.83D-09 Max=1.64D-08 NDo=     1
 Linear equations converged to 2.717D-09 2.717D-08 after     8 iterations.
 Angle between quadratic step and gradient=  59.49 degrees.
     ILin= 1 X=0.000D+00 Y=-2.503252975988D+01 DE= 0.00D+00 F= -8.75D-04
     ILin= 2 X=1.000D+00 Y=-2.503298647805D+01 DE=-4.57D-04 F= -5.01D-05
     Reject lnstep minimum 1.064D+00 FVal=-2.503298806940D+01 Lims=  0.00D+00  1.00D+00
     ILin= 3 X=1.800D+00 Y=-2.503276431569D+01 DE=-2.35D-04 F=  6.15D-04
     An  expanding polynomial of degree  3 produced  1.0597
     Minimum is close to point  2 DX=  5.97D-02 DF= -1.45D-06 DXR=  5.63D-02 DFR=  3.18D-03 which will be used.
 Iteration   5 EE= -25.0329864780494     Delta-E=       -0.000456718167 Grad=1.260D-03 Max rot=    0.0292 deg.
 QCNR:  CnvC1=2.72D-09 CnvC2=2.72D-08
 LinEq1:  Iter=  0 NonCon=     1 RMS=3.56D-05 Max=4.05D-04 NDo=     1
 LinEq1:  Iter=  1 NonCon=     1 RMS=1.14D-05 Max=9.72D-05 NDo=     1
 LinEq1:  Iter=  2 NonCon=     1 RMS=2.18D-06 Max=1.93D-05 NDo=     1
 LinEq1:  Iter=  3 NonCon=     1 RMS=4.30D-07 Max=3.55D-06 NDo=     1
 LinEq1:  Iter=  4 NonCon=     1 RMS=9.53D-08 Max=9.99D-07 NDo=     1
 LinEq1:  Iter=  5 NonCon=     1 RMS=3.16D-08 Max=3.03D-07 NDo=     1
 LinEq1:  Iter=  6 NonCon=     1 RMS=6.47D-09 Max=5.58D-08 NDo=     1
 LinEq1:  Iter=  7 NonCon=     0 RMS=1.40D-09 Max=1.53D-08 NDo=     1
 Linear equations converged to 2.717D-09 2.717D-08 after     7 iterations.
 Angle between quadratic step and gradient=  80.54 degrees.
     ILin= 1 X=0.000D+00 Y=-2.503298647805D+01 DE= 0.00D+00 F= -1.22D-05
     ILin= 2 X=1.000D+00 Y=-2.503299012642D+01 DE=-3.65D-06 F=  5.00D-06
     Accept linear search using points  1 and  2.
     An  expanding polynomial of degree  2 produced  0.7134
 Iteration   6 EE= -25.0329908405224     Delta-E=       -0.000004362473 Grad=2.240D-03 Max rot=    0.0716 deg.
 QCNR:  CnvC1=2.72D-09 CnvC2=2.72D-08
 LinEq1:  Iter=  0 NonCon=     1 RMS=3.07D-05 Max=3.57D-04 NDo=     1
 LinEq1:  Iter=  1 NonCon=     1 RMS=8.67D-06 Max=8.71D-05 NDo=     1
 LinEq1:  Iter=  2 NonCon=     1 RMS=1.81D-06 Max=1.63D-05 NDo=     1
 LinEq1:  Iter=  3 NonCon=     1 RMS=6.19D-07 Max=5.66D-06 NDo=     1
 LinEq1:  Iter=  4 NonCon=     1 RMS=1.14D-07 Max=1.32D-06 NDo=     1
 LinEq1:  Iter=  5 NonCon=     1 RMS=2.57D-08 Max=2.34D-07 NDo=     1
 LinEq1:  Iter=  6 NonCon=     1 RMS=7.32D-09 Max=6.27D-08 NDo=     1
 LinEq1:  Iter=  7 NonCon=     0 RMS=1.51D-09 Max=1.22D-08 NDo=     1
 Linear equations converged to 2.717D-09 2.717D-08 after     7 iterations.
 Angle between quadratic step and gradient=  86.97 degrees.
     ILin= 1 X=0.000D+00 Y=-2.503299084052D+01 DE= 0.00D+00 F= -6.88D-06
     ILin= 2 X=1.000D+00 Y=-2.503299285439D+01 DE=-2.01D-06 F=  2.80D-06
     Accept linear search using points  1 and  2.
     An  expanding polynomial of degree  2 produced  0.7073
 Iteration   7 EE= -25.0329932648348     Delta-E=       -0.000002424312 Grad=1.045D-03 Max rot=    0.0207 deg.
 QCNR:  CnvC1=2.72D-09 CnvC2=2.72D-08
 LinEq1:  Iter=  0 NonCon=     1 RMS=2.61D-05 Max=2.54D-04 NDo=     1
 LinEq1:  Iter=  1 NonCon=     1 RMS=7.03D-06 Max=5.42D-05 NDo=     1
 LinEq1:  Iter=  2 NonCon=     1 RMS=2.06D-06 Max=2.06D-05 NDo=     1
 LinEq1:  Iter=  3 NonCon=     1 RMS=4.78D-07 Max=4.14D-06 NDo=     1
 LinEq1:  Iter=  4 NonCon=     1 RMS=9.81D-08 Max=9.53D-07 NDo=     1
 LinEq1:  Iter=  5 NonCon=     1 RMS=2.43D-08 Max=2.45D-07 NDo=     1
 LinEq1:  Iter=  6 NonCon=     1 RMS=6.93D-09 Max=6.17D-08 NDo=     1
 LinEq1:  Iter=  7 NonCon=     0 RMS=1.90D-09 Max=1.99D-08 NDo=     1
 Linear equations converged to 2.717D-09 2.717D-08 after     7 iterations.
 Angle between quadratic step and gradient=  82.01 degrees.
     ILin= 1 X=0.000D+00 Y=-2.503299326483D+01 DE= 0.00D+00 F= -3.90D-06
     ILin= 2 X=1.000D+00 Y=-2.503299378262D+01 DE=-5.18D-07 F=  2.87D-06
     Accept linear search using points  1 and  2.
     An  expanding polynomial of degree  2 produced  0.5766
 Iteration   8 EE= -25.0329943894334     Delta-E=       -0.000001124599 Grad=1.772D-03 Max rot=    0.0627 deg.
 QCNR:  CnvC1=2.72D-09 CnvC2=2.72D-08
 LinEq1:  Iter=  0 NonCon=     1 RMS=1.83D-05 Max=1.55D-04 NDo=     1
 LinEq1:  Iter=  1 NonCon=     1 RMS=5.33D-06 Max=5.25D-05 NDo=     1
 LinEq1:  Iter=  2 NonCon=     1 RMS=1.51D-06 Max=1.77D-05 NDo=     1
 LinEq1:  Iter=  3 NonCon=     1 RMS=3.96D-07 Max=4.48D-06 NDo=     1
 LinEq1:  Iter=  4 NonCon=     1 RMS=7.79D-08 Max=9.20D-07 NDo=     1
 LinEq1:  Iter=  5 NonCon=     1 RMS=7.46D-09 Max=7.27D-08 NDo=     1
 LinEq1:  Iter=  6 NonCon=     0 RMS=1.77D-09 Max=2.08D-08 NDo=     1
 Linear equations converged to 2.717D-09 2.717D-08 after     6 iterations.
 Angle between quadratic step and gradient=  88.41 degrees.
     ILin= 1 X=0.000D+00 Y=-2.503299438943D+01 DE= 0.00D+00 F= -2.36D-05
     ILin= 2 X=1.000D+00 Y=-2.503296048681D+01 DE= 3.39D-05 F=  1.71D-04
     Reject lnstep minimum 4.024D-01 FVal=-2.503300061230D+01 Lims=  0.00D+00  1.00D+00
     ILin= 3 X=4.000D-01 Y=-2.503300014774D+01 DE=-5.76D-06 F=  3.95D-07
     A contracting polynomial of degree  3 produced  0.2894
 Iteration   9 EE= -25.0329995760274     Delta-E=       -0.000005186594 Grad=1.600D-03 Max rot=    0.0538 deg.
 QCNR:  CnvC1=2.72D-09 CnvC2=2.72D-08
 LinEq1:  Iter=  0 NonCon=     1 RMS=2.06D-05 Max=2.03D-04 NDo=     1
 LinEq1:  Iter=  1 NonCon=     1 RMS=6.49D-06 Max=6.58D-05 NDo=     1
 LinEq1:  Iter=  2 NonCon=     1 RMS=1.76D-06 Max=1.90D-05 NDo=     1
 LinEq1:  Iter=  3 NonCon=     1 RMS=3.27D-07 Max=2.89D-06 NDo=     1
 LinEq1:  Iter=  4 NonCon=     1 RMS=8.23D-08 Max=7.44D-07 NDo=     1
 LinEq1:  Iter=  5 NonCon=     1 RMS=2.27D-08 Max=2.07D-07 NDo=     1
 LinEq1:  Iter=  6 NonCon=     1 RMS=6.43D-09 Max=5.88D-08 NDo=     1
 LinEq1:  Iter=  7 NonCon=     0 RMS=1.19D-09 Max=1.13D-08 NDo=     1
 Linear equations converged to 2.717D-09 2.717D-08 after     7 iterations.
 Angle between quadratic step and gradient=  85.43 degrees.
     ILin= 1 X=0.000D+00 Y=-2.503299957603D+01 DE= 0.00D+00 F= -4.40D-06
     ILin= 2 X=1.000D+00 Y=-2.503300116061D+01 DE=-1.58D-06 F=  1.24D-06
     Accept linear search using points  1 and  2.
     An  expanding polynomial of degree  2 produced  0.7805
 Iteration  10 EE= -25.0330012971097     Delta-E=       -0.000001721082 Grad=1.002D-03 Max rot=    0.0174 deg.
 QCNR:  CnvC1=2.72D-09 CnvC2=2.72D-08
 LinEq1:  Iter=  0 NonCon=     1 RMS=2.17D-05 Max=1.96D-04 NDo=     1
 LinEq1:  Iter=  1 NonCon=     1 RMS=5.11D-06 Max=5.50D-05 NDo=     1
 LinEq1:  Iter=  2 NonCon=     1 RMS=1.28D-06 Max=1.41D-05 NDo=     1
 LinEq1:  Iter=  3 NonCon=     1 RMS=3.65D-07 Max=2.95D-06 NDo=     1
 LinEq1:  Iter=  4 NonCon=     1 RMS=8.03D-08 Max=6.48D-07 NDo=     1
 LinEq1:  Iter=  5 NonCon=     1 RMS=1.44D-08 Max=1.04D-07 NDo=     1
 LinEq1:  Iter=  6 NonCon=     0 RMS=2.53D-09 Max=1.89D-08 NDo=     1
 Linear equations converged to 2.717D-09 2.717D-08 after     6 iterations.
 Angle between quadratic step and gradient=  87.72 degrees.
     ILin= 1 X=0.000D+00 Y=-2.503300129711D+01 DE= 0.00D+00 F= -1.16D-05
     ILin= 2 X=1.000D+00 Y=-2.503299479238D+01 DE= 6.50D-06 F=  3.08D-05
     Reject lnstep minimum 3.739D-01 FVal=-2.503300360169D+01 Lims=  0.00D+00  1.00D+00
     ILin= 3 X=4.000D-01 Y=-2.503300333529D+01 DE=-2.04D-06 F=  1.40D-06
     A contracting polynomial of degree  3 produced  0.3318
 Iteration  11 EE= -25.0330033526101     Delta-E=       -0.000002055500 Grad=4.027D-03 Max rot=    0.1243 deg.
 QCNR:  CnvC1=2.72D-09 CnvC2=2.72D-08
 LinEq1:  Iter=  0 NonCon=     1 RMS=2.51D-05 Max=2.44D-04 NDo=     1
 LinEq1:  Iter=  1 NonCon=     1 RMS=6.34D-06 Max=5.02D-05 NDo=     1
 LinEq1:  Iter=  2 NonCon=     1 RMS=1.76D-06 Max=1.45D-05 NDo=     1
 LinEq1:  Iter=  3 NonCon=     1 RMS=5.32D-07 Max=4.13D-06 NDo=     1
 LinEq1:  Iter=  4 NonCon=     1 RMS=8.25D-08 Max=8.44D-07 NDo=     1
 LinEq1:  Iter=  5 NonCon=     1 RMS=1.77D-08 Max=1.37D-07 NDo=     1
 LinEq1:  Iter=  6 NonCon=     1 RMS=4.92D-09 Max=3.89D-08 NDo=     1
 LinEq1:  Iter=  7 NonCon=     0 RMS=1.36D-09 Max=1.26D-08 NDo=     1
 Linear equations converged to 2.717D-09 2.717D-08 after     7 iterations.
 Angle between quadratic step and gradient=  86.52 degrees.
     ILin= 1 X=0.000D+00 Y=-2.503300335261D+01 DE= 0.00D+00 F= -5.00D-06
     ILin= 2 X=1.000D+00 Y=-2.503300486995D+01 DE=-1.52D-06 F=  1.97D-06
     Accept linear search using points  1 and  2.
     An  expanding polynomial of degree  2 produced  0.7180
 Iteration  12 EE= -25.0330051470313     Delta-E=       -0.000001794421 Grad=1.420D-03 Max rot=    0.0372 deg.
 QCNR:  CnvC1=2.72D-09 CnvC2=2.72D-08
 LinEq1:  Iter=  0 NonCon=     1 RMS=1.38D-05 Max=1.38D-04 NDo=     1
 LinEq1:  Iter=  1 NonCon=     1 RMS=4.00D-06 Max=3.92D-05 NDo=     1
 LinEq1:  Iter=  2 NonCon=     1 RMS=1.15D-06 Max=1.08D-05 NDo=     1
 LinEq1:  Iter=  3 NonCon=     1 RMS=2.84D-07 Max=3.30D-06 NDo=     1
 LinEq1:  Iter=  4 NonCon=     1 RMS=4.97D-08 Max=4.50D-07 NDo=     1
 LinEq1:  Iter=  5 NonCon=     1 RMS=1.07D-08 Max=9.18D-08 NDo=     1
 LinEq1:  Iter=  6 NonCon=     1 RMS=3.74D-09 Max=3.53D-08 NDo=     1
 LinEq1:  Iter=  7 NonCon=     0 RMS=4.00D-10 Max=3.96D-09 NDo=     1
 Linear equations converged to 2.717D-09 2.717D-08 after     7 iterations.
 Angle between quadratic step and gradient=  88.22 degrees.
     ILin= 1 X=0.000D+00 Y=-2.503300514703D+01 DE= 0.00D+00 F= -3.59D-06
     ILin= 2 X=1.000D+00 Y=-2.503300495888D+01 DE= 1.88D-07 F=  3.97D-06
     Reject lnstep minimum 4.754D-01 FVal=-2.503300600071D+01 Lims=  0.00D+00  1.00D+00
     ILin= 3 X=5.000D-01 Y=-2.503300599643D+01 DE=-8.49D-07 F=  1.86D-07
     A contracting polynomial of degree  3 produced  0.4751
     Minimum is close to point  3 DX= -2.49D-02 DF= -2.35D-09 DXR=  5.25D-02 DFR=  2.76D-03 which will be used.
 Iteration  13 EE= -25.0330059964332     Delta-E=       -0.000000849402 Grad=2.259D-03 Max rot=    0.0581 deg.
 QCNR:  CnvC1=2.72D-09 CnvC2=2.72D-08
 LinEq1:  Iter=  0 NonCon=     1 RMS=1.92D-05 Max=1.77D-04 NDo=     1
 LinEq1:  Iter=  1 NonCon=     1 RMS=4.38D-06 Max=3.55D-05 NDo=     1
 LinEq1:  Iter=  2 NonCon=     1 RMS=1.28D-06 Max=1.59D-05 NDo=     1
 LinEq1:  Iter=  3 NonCon=     1 RMS=2.92D-07 Max=2.83D-06 NDo=     1
 LinEq1:  Iter=  4 NonCon=     1 RMS=7.03D-08 Max=7.13D-07 NDo=     1
 LinEq1:  Iter=  5 NonCon=     1 RMS=1.34D-08 Max=1.04D-07 NDo=     1
 LinEq1:  Iter=  6 NonCon=     0 RMS=2.27D-09 Max=1.40D-08 NDo=     1
 Linear equations converged to 2.717D-09 2.717D-08 after     6 iterations.
 Angle between quadratic step and gradient=  89.04 degrees.
     ILin= 1 X=0.000D+00 Y=-2.503300599643D+01 DE= 0.00D+00 F= -4.94D-06
     ILin= 2 X=1.000D+00 Y=-2.503300669735D+01 DE=-7.01D-07 F=  3.72D-06
     Accept linear search using points  1 and  2.
     An  expanding polynomial of degree  2 produced  0.5857
 Iteration  14 EE= -25.0330074478593     Delta-E=       -0.000001451426 Grad=2.824D-03 Max rot=    0.0982 deg.
 QCNR:  CnvC1=2.72D-09 CnvC2=2.72D-08
 LinEq1:  Iter=  0 NonCon=     1 RMS=1.76D-05 Max=1.22D-04 NDo=     1
 LinEq1:  Iter=  1 NonCon=     1 RMS=5.72D-06 Max=5.53D-05 NDo=     1
 LinEq1:  Iter=  2 NonCon=     1 RMS=1.66D-06 Max=1.53D-05 NDo=     1
 LinEq1:  Iter=  3 NonCon=     1 RMS=3.32D-07 Max=2.21D-06 NDo=     1
 LinEq1:  Iter=  4 NonCon=     1 RMS=5.21D-08 Max=5.22D-07 NDo=     1
 LinEq1:  Iter=  5 NonCon=     1 RMS=1.68D-08 Max=2.03D-07 NDo=     1
 LinEq1:  Iter=  6 NonCon=     1 RMS=3.58D-09 Max=3.20D-08 NDo=     1
 LinEq1:  Iter=  7 NonCon=     0 RMS=6.42D-10 Max=6.03D-09 NDo=     1
 Linear equations converged to 2.717D-09 2.717D-08 after     7 iterations.
 Angle between quadratic step and gradient=  88.12 degrees.
     ILin= 1 X=0.000D+00 Y=-2.503300744786D+01 DE= 0.00D+00 F= -3.94D-06
     ILin= 2 X=1.000D+00 Y=-2.503300795412D+01 DE=-5.06D-07 F=  2.90D-06
     Accept linear search using points  1 and  2.
     An  expanding polynomial of degree  2 produced  0.5732
 Iteration  15 EE= -25.0330085745543     Delta-E=       -0.000001126695 Grad=1.860D-03 Max rot=    0.0367 deg.
 QCNR:  CnvC1=2.72D-09 CnvC2=2.72D-08
 LinEq1:  Iter=  0 NonCon=     1 RMS=1.67D-05 Max=1.45D-04 NDo=     1
 LinEq1:  Iter=  1 NonCon=     1 RMS=4.66D-06 Max=5.53D-05 NDo=     1
 LinEq1:  Iter=  2 NonCon=     1 RMS=1.14D-06 Max=1.25D-05 NDo=     1
 LinEq1:  Iter=  3 NonCon=     1 RMS=3.05D-07 Max=3.39D-06 NDo=     1
 LinEq1:  Iter=  4 NonCon=     1 RMS=5.29D-08 Max=4.20D-07 NDo=     1
 LinEq1:  Iter=  5 NonCon=     1 RMS=1.33D-08 Max=8.95D-08 NDo=     1
 LinEq1:  Iter=  6 NonCon=     1 RMS=4.02D-09 Max=4.52D-08 NDo=     1
 LinEq1:  Iter=  7 NonCon=     0 RMS=8.58D-10 Max=8.33D-09 NDo=     1
 Linear equations converged to 2.717D-09 2.717D-08 after     7 iterations.
 Angle between quadratic step and gradient=  86.55 degrees.
     ILin= 1 X=0.000D+00 Y=-2.503300857455D+01 DE= 0.00D+00 F= -1.66D-06
     ILin= 2 X=1.000D+00 Y=-2.503300927918D+01 DE=-7.05D-07 F=  2.50D-07
     Accept linear search using points  1 and  2.
     An  expanding polynomial of degree  2 produced  0.8695
 Iteration  16 EE= -25.0330092954551     Delta-E=       -0.000000720901 Grad=6.541D-04 Max rot=    0.0123 deg.
 QCNR:  CnvC1=2.72D-09 CnvC2=2.72D-08
 LinEq1:  Iter=  0 NonCon=     1 RMS=9.41D-06 Max=8.62D-05 NDo=     1
 LinEq1:  Iter=  1 NonCon=     1 RMS=2.40D-06 Max=2.40D-05 NDo=     1
 LinEq1:  Iter=  2 NonCon=     1 RMS=7.25D-07 Max=5.89D-06 NDo=     1
 LinEq1:  Iter=  3 NonCon=     1 RMS=1.88D-07 Max=1.95D-06 NDo=     1
 LinEq1:  Iter=  4 NonCon=     1 RMS=3.62D-08 Max=2.94D-07 NDo=     1
 LinEq1:  Iter=  5 NonCon=     1 RMS=9.91D-09 Max=8.19D-08 NDo=     1
 LinEq1:  Iter=  6 NonCon=     0 RMS=2.61D-09 Max=2.63D-08 NDo=     1
 Linear equations converged to 2.717D-09 2.717D-08 after     6 iterations.
 Angle between quadratic step and gradient=  84.50 degrees.
     ILin= 1 X=0.000D+00 Y=-2.503300929546D+01 DE= 0.00D+00 F= -5.50D-07
     ILin= 2 X=1.000D+00 Y=-2.503300948624D+01 DE=-1.91D-07 F=  1.68D-07
     Accept linear search using points  1 and  2.
     An  expanding polynomial of degree  2 produced  0.7658
 Iteration  17 EE= -25.0330095059206     Delta-E=       -0.000000210466 Grad=5.767D-04 Max rot=    0.0119 deg.
 QCNR:  CnvC1=2.72D-09 CnvC2=2.72D-08
 LinEq1:  Iter=  0 NonCon=     1 RMS=4.79D-06 Max=5.27D-05 NDo=     1
 LinEq1:  Iter=  1 NonCon=     1 RMS=1.69D-06 Max=1.82D-05 NDo=     1
 LinEq1:  Iter=  2 NonCon=     1 RMS=4.40D-07 Max=3.89D-06 NDo=     1
 LinEq1:  Iter=  3 NonCon=     1 RMS=1.28D-07 Max=1.23D-06 NDo=     1
 LinEq1:  Iter=  4 NonCon=     1 RMS=1.44D-08 Max=1.68D-07 NDo=     1
 LinEq1:  Iter=  5 NonCon=     1 RMS=4.82D-09 Max=5.48D-08 NDo=     1
 LinEq1:  Iter=  6 NonCon=     0 RMS=1.11D-09 Max=1.17D-08 NDo=     1
 Linear equations converged to 2.717D-09 2.717D-08 after     6 iterations.
 Angle between quadratic step and gradient=  87.37 degrees.
     ILin= 1 X=0.000D+00 Y=-2.503300950592D+01 DE= 0.00D+00 F= -6.85D-07
     ILin= 2 X=1.000D+00 Y=-2.503300930272D+01 DE= 2.03D-07 F=  1.09D-06
     Reject lnstep minimum 3.856D-01 FVal=-2.503300963793D+01 Lims=  0.00D+00  1.00D+00
     ILin= 3 X=4.000D-01 Y=-2.503300963772D+01 DE=-1.32D-07 F=  2.57D-08
     A contracting polynomial of degree  3 produced  0.3856
     Minimum is close to point  3 DX= -1.44D-02 DF= -1.85D-10 DXR=  3.74D-02 DFR=  1.40D-03 which will be used.
 Iteration  18 EE= -25.0330096377159     Delta-E=       -0.000000131795 Grad=9.335D-04 Max rot=    0.0243 deg.
 QCNR:  CnvC1=2.72D-09 CnvC2=2.72D-08
 LinEq1:  Iter=  0 NonCon=     1 RMS=6.93D-06 Max=5.64D-05 NDo=     1
 LinEq1:  Iter=  1 NonCon=     1 RMS=2.07D-06 Max=2.17D-05 NDo=     1
 LinEq1:  Iter=  2 NonCon=     1 RMS=5.98D-07 Max=5.67D-06 NDo=     1
 LinEq1:  Iter=  3 NonCon=     1 RMS=1.57D-07 Max=1.46D-06 NDo=     1
 LinEq1:  Iter=  4 NonCon=     1 RMS=3.08D-08 Max=3.02D-07 NDo=     1
 LinEq1:  Iter=  5 NonCon=     1 RMS=6.28D-09 Max=6.08D-08 NDo=     1
 LinEq1:  Iter=  6 NonCon=     0 RMS=2.31D-09 Max=1.98D-08 NDo=     1
 Linear equations converged to 2.717D-09 2.717D-08 after     6 iterations.
 Angle between quadratic step and gradient=  87.78 degrees.
     ILin= 1 X=0.000D+00 Y=-2.503300963772D+01 DE= 0.00D+00 F= -5.95D-07
     ILin= 2 X=1.000D+00 Y=-2.503300981062D+01 DE=-1.73D-07 F=  2.49D-07
     Accept linear search using points  1 and  2.
     An  expanding polynomial of degree  2 produced  0.7049
 Iteration  19 EE= -25.0330098474094     Delta-E=       -0.000000209693 Grad=7.404D-04 Max rot=    0.0253 deg.
 QCNR:  CnvC1=2.72D-09 CnvC2=2.72D-08
 LinEq1:  Iter=  0 NonCon=     1 RMS=5.05D-06 Max=3.97D-05 NDo=     1
 LinEq1:  Iter=  1 NonCon=     1 RMS=1.98D-06 Max=1.55D-05 NDo=     1
 LinEq1:  Iter=  2 NonCon=     1 RMS=4.21D-07 Max=4.15D-06 NDo=     1
 LinEq1:  Iter=  3 NonCon=     1 RMS=1.21D-07 Max=1.23D-06 NDo=     1
 LinEq1:  Iter=  4 NonCon=     1 RMS=1.69D-08 Max=1.77D-07 NDo=     1
 LinEq1:  Iter=  5 NonCon=     1 RMS=5.23D-09 Max=4.10D-08 NDo=     1
 LinEq1:  Iter=  6 NonCon=     0 RMS=1.31D-09 Max=1.09D-08 NDo=     1
 Linear equations converged to 2.717D-09 2.717D-08 after     6 iterations.
 Angle between quadratic step and gradient=  86.83 degrees.
     ILin= 1 X=0.000D+00 Y=-2.503300984741D+01 DE= 0.00D+00 F= -4.79D-07
     ILin= 2 X=1.000D+00 Y=-2.503300987103D+01 DE=-2.36D-08 F=  4.32D-07
     Accept linear search using points  1 and  2.
     An  expanding polynomial of degree  2 produced  0.5259
 Iteration  20 EE= -25.0330099734044     Delta-E=       -0.000000125995 Grad=9.269D-04 Max rot=    0.0331 deg.
 QCNR:  CnvC1=2.72D-09 CnvC2=2.72D-08
 LinEq1:  Iter=  0 NonCon=     1 RMS=5.97D-06 Max=4.77D-05 NDo=     1
 LinEq1:  Iter=  1 NonCon=     1 RMS=1.75D-06 Max=1.82D-05 NDo=     1
 LinEq1:  Iter=  2 NonCon=     1 RMS=5.45D-07 Max=6.21D-06 NDo=     1
 LinEq1:  Iter=  3 NonCon=     1 RMS=1.16D-07 Max=1.14D-06 NDo=     1
 LinEq1:  Iter=  4 NonCon=     1 RMS=2.76D-08 Max=2.82D-07 NDo=     1
 LinEq1:  Iter=  5 NonCon=     1 RMS=4.16D-09 Max=3.71D-08 NDo=     1
 LinEq1:  Iter=  6 NonCon=     0 RMS=7.54D-10 Max=9.04D-09 NDo=     1
 Linear equations converged to 2.717D-09 2.717D-08 after     6 iterations.
 Angle between quadratic step and gradient=  88.82 degrees.
     ILin= 1 X=0.000D+00 Y=-2.503300997340D+01 DE= 0.00D+00 F= -2.77D-06
     ILin= 2 X=1.000D+00 Y=-2.503301046199D+01 DE=-4.89D-07 F=  2.54D-06
     Accept linear search using points  1 and  2.
     An  expanding polynomial of degree  2 produced  0.6224
 Iteration  21 EE= -25.0330109049336     Delta-E=       -0.000000931529 Grad=8.457D-04 Max rot=    0.0335 deg.
 QCNR:  CnvC1=2.72D-09 CnvC2=2.72D-08
 LinEq1:  Iter=  0 NonCon=     1 RMS=1.03D-05 Max=8.83D-05 NDo=     1
 LinEq1:  Iter=  1 NonCon=     1 RMS=3.16D-06 Max=3.51D-05 NDo=     1
 LinEq1:  Iter=  2 NonCon=     1 RMS=7.80D-07 Max=9.24D-06 NDo=     1
 LinEq1:  Iter=  3 NonCon=     1 RMS=1.48D-07 Max=1.35D-06 NDo=     1
 LinEq1:  Iter=  4 NonCon=     1 RMS=2.54D-08 Max=2.74D-07 NDo=     1
 LinEq1:  Iter=  5 NonCon=     1 RMS=8.50D-09 Max=1.15D-07 NDo=     1
 LinEq1:  Iter=  6 NonCon=     0 RMS=1.65D-09 Max=1.37D-08 NDo=     1
 Linear equations converged to 2.717D-09 2.717D-08 after     6 iterations.
 Angle between quadratic step and gradient=  81.53 degrees.
     ILin= 1 X=0.000D+00 Y=-2.503301090493D+01 DE= 0.00D+00 F= -1.01D-06
     ILin= 2 X=1.000D+00 Y=-2.503301138457D+01 DE=-4.80D-07 F=  5.38D-08
     Accept linear search using points  1 and  2.
     An  expanding polynomial of degree  2 produced  0.9495
     Minimum is close to point  2 DX= -5.05D-02 DF= -1.36D-09 DXR=  5.31D-02 DFR=  2.83D-03 which will be used.
 Iteration  22 EE= -25.0330113845656     Delta-E=       -0.000000479632 Grad=6.205D-04 Max rot=    0.0224 deg.
 QCNR:  CnvC1=2.72D-09 CnvC2=2.72D-08
 LinEq1:  Iter=  0 NonCon=     1 RMS=5.14D-06 Max=4.26D-05 NDo=     1
 LinEq1:  Iter=  1 NonCon=     1 RMS=1.10D-06 Max=1.33D-05 NDo=     1
 LinEq1:  Iter=  2 NonCon=     1 RMS=3.86D-07 Max=4.34D-06 NDo=     1
 LinEq1:  Iter=  3 NonCon=     1 RMS=7.34D-08 Max=6.13D-07 NDo=     1
 LinEq1:  Iter=  4 NonCon=     1 RMS=1.50D-08 Max=1.76D-07 NDo=     1
 LinEq1:  Iter=  5 NonCon=     1 RMS=3.71D-09 Max=3.49D-08 NDo=     1
 LinEq1:  Iter=  6 NonCon=     0 RMS=8.70D-10 Max=6.91D-09 NDo=     1
 Linear equations converged to 2.717D-09 2.717D-08 after     6 iterations.
 Angle between quadratic step and gradient=  88.74 degrees.
     ILin= 1 X=0.000D+00 Y=-2.503301138457D+01 DE= 0.00D+00 F= -4.84D-07
     ILin= 2 X=1.000D+00 Y=-2.503301145497D+01 DE=-7.04D-08 F=  3.56D-07
     Accept linear search using points  1 and  2.
     An  expanding polynomial of degree  2 produced  0.5872
 Iteration  23 EE= -25.0330115280124     Delta-E=       -0.000000143447 Grad=7.464D-04 Max rot=    0.0318 deg.
 QCNR:  CnvC1=2.72D-09 CnvC2=2.72D-08
 LinEq1:  Iter=  0 NonCon=     1 RMS=5.13D-06 Max=3.54D-05 NDo=     1
 LinEq1:  Iter=  1 NonCon=     1 RMS=1.82D-06 Max=2.02D-05 NDo=     1
 LinEq1:  Iter=  2 NonCon=     1 RMS=4.29D-07 Max=5.45D-06 NDo=     1
 LinEq1:  Iter=  3 NonCon=     1 RMS=1.02D-07 Max=9.21D-07 NDo=     1
 LinEq1:  Iter=  4 NonCon=     1 RMS=1.96D-08 Max=2.06D-07 NDo=     1
 LinEq1:  Iter=  5 NonCon=     1 RMS=5.78D-09 Max=6.28D-08 NDo=     1
 LinEq1:  Iter=  6 NonCon=     0 RMS=1.45D-09 Max=1.38D-08 NDo=     1
 Linear equations converged to 2.717D-09 2.717D-08 after     6 iterations.
 Angle between quadratic step and gradient=  84.82 degrees.
     ILin= 1 X=0.000D+00 Y=-2.503301152801D+01 DE= 0.00D+00 F= -2.87D-07
     ILin= 2 X=1.000D+00 Y=-2.503301166312D+01 DE=-1.35D-07 F=  1.66D-08
     Accept linear search using points  1 and  2.
     An  expanding polynomial of degree  2 produced  0.9454
     Minimum is close to point  2 DX= -5.46D-02 DF= -4.53D-10 DXR=  5.78D-02 DFR=  3.35D-03 which will be used.
 Iteration  24 EE= -25.0330116631190     Delta-E=       -0.000000135107 Grad=1.879D-04 Max rot=    0.0049 deg.
 QCNR:  CnvC1=1.88D-09 CnvC2=1.88D-08
 LinEq1:  Iter=  0 NonCon=     1 RMS=2.39D-06 Max=2.25D-05 NDo=     1
 LinEq1:  Iter=  1 NonCon=     1 RMS=7.68D-07 Max=8.06D-06 NDo=     1
 LinEq1:  Iter=  2 NonCon=     1 RMS=2.00D-07 Max=2.25D-06 NDo=     1
 LinEq1:  Iter=  3 NonCon=     1 RMS=4.85D-08 Max=4.40D-07 NDo=     1
 LinEq1:  Iter=  4 NonCon=     1 RMS=9.13D-09 Max=8.90D-08 NDo=     1
 LinEq1:  Iter=  5 NonCon=     1 RMS=2.36D-09 Max=2.58D-08 NDo=     1
 LinEq1:  Iter=  6 NonCon=     0 RMS=6.59D-10 Max=5.53D-09 NDo=     1
 Linear equations converged to 1.879D-09 1.879D-08 after     6 iterations.
 Angle between quadratic step and gradient=  86.28 degrees.
     ILin= 1 X=0.000D+00 Y=-2.503301166312D+01 DE= 0.00D+00 F= -1.62D-07
     ILin= 2 X=1.000D+00 Y=-2.503301167319D+01 DE=-1.01D-08 F=  1.43D-07
     Accept linear search using points  1 and  2.
     An  expanding polynomial of degree  2 produced  0.5336
 Iteration  25 EE= -25.0330117064186     Delta-E=       -0.000000043300 Grad=4.301D-04 Max rot=    0.0189 deg.
 QCNR:  CnvC1=2.72D-09 CnvC2=2.72D-08
 LinEq1:  Iter=  0 NonCon=     1 RMS=2.93D-06 Max=2.31D-05 NDo=     1
 LinEq1:  Iter=  1 NonCon=     1 RMS=9.88D-07 Max=1.06D-05 NDo=     1
 LinEq1:  Iter=  2 NonCon=     1 RMS=2.56D-07 Max=3.30D-06 NDo=     1
 LinEq1:  Iter=  3 NonCon=     1 RMS=7.39D-08 Max=7.54D-07 NDo=     1
 LinEq1:  Iter=  4 NonCon=     1 RMS=1.18D-08 Max=1.27D-07 NDo=     1
 LinEq1:  Iter=  5 NonCon=     1 RMS=2.96D-09 Max=2.60D-08 NDo=     1
 LinEq1:  Iter=  6 NonCon=     0 RMS=7.74D-10 Max=5.78D-09 NDo=     1
 Linear equations converged to 2.717D-09 2.717D-08 after     6 iterations.
 Angle between quadratic step and gradient=  86.48 degrees.
     ILin= 1 X=0.000D+00 Y=-2.503301170642D+01 DE= 0.00D+00 F= -1.10D-07
     ILin= 2 X=1.000D+00 Y=-2.503301175110D+01 DE=-4.47D-08 F=  2.01D-08
     Accept linear search using points  1 and  2.
     An  expanding polynomial of degree  2 produced  0.8447
 Iteration  26 EE= -25.0330117526650     Delta-E=       -0.000000046246 Grad=1.893D-04 Max rot=    0.0060 deg.
 QCNR:  CnvC1=1.89D-09 CnvC2=1.89D-08
 LinEq1:  Iter=  0 NonCon=     1 RMS=2.69D-06 Max=1.89D-05 NDo=     1
 LinEq1:  Iter=  1 NonCon=     1 RMS=7.97D-07 Max=8.34D-06 NDo=     1
 LinEq1:  Iter=  2 NonCon=     1 RMS=2.13D-07 Max=2.40D-06 NDo=     1
 LinEq1:  Iter=  3 NonCon=     1 RMS=4.91D-08 Max=4.49D-07 NDo=     1
 LinEq1:  Iter=  4 NonCon=     1 RMS=1.14D-08 Max=1.10D-07 NDo=     1
 LinEq1:  Iter=  5 NonCon=     1 RMS=2.75D-09 Max=2.34D-08 NDo=     1
 LinEq1:  Iter=  6 NonCon=     0 RMS=8.20D-10 Max=7.91D-09 NDo=     1
 Linear equations converged to 1.893D-09 1.893D-08 after     6 iterations.
 Angle between quadratic step and gradient=  86.06 degrees.
     ILin= 1 X=0.000D+00 Y=-2.503301175266D+01 DE= 0.00D+00 F= -1.05D-07
     ILin= 2 X=1.000D+00 Y=-2.503301177656D+01 DE=-2.39D-08 F=  5.68D-08
     Accept linear search using points  1 and  2.
     An  expanding polynomial of degree  2 produced  0.6482
[...]
 Range of M.O.s used for correlation:     1   126
 NBasis=   126 NAE=     3 NBE=     3 NFC=     0 NFV=     0
 NROrb=    126 NOA=     3 NOB=     3 NVA=   123 NVB=   123
 Leave Link  801 at Sun May 22 18:32:35 2022, MaxMem=   104857600 cpu:               0.0 elap:               0.0
 (Enter /apps/software/g16/l914.exe)
 UHF ground state
 Doing stability rather than CIS.
 Keep R1 and R2 ints in memory in symmetry-blocked form, NReq=40144005.
 FoFCou: FMM=F IPFlag=           0 FMFlag=           0 FMFlg1=           0
         NFxFlg=           0 DoJE=F BraDBF=F KetDBF=F FulRan=T
         wScrn=  0.000000 ICntrl=       600 IOpCl=  0 I1Cent=           0 NGrid=           0
         NMat0=    1 NMatS0=   8001 NMatT0=    0 NMatD0=    1 NMtDS0=    0 NMtDT0=    0
 Petite list used in FoFCou.
 MDV=   104857600 DFT=F DoStab=T Mixed=F DoRPA=F DoScal=F NonHer=F
 Making orbital integer symmetry assigments:
 Orbital symmetries:
 Alpha Orbitals:
       Occupied  (SG) (SG) (SG)
       Virtual   (SG) (PI) (PI) (SG) (PI) (PI) (SG) (SG) (PI) (PI)
                 (DLTA) (DLTA) (SG) (PI) (PI) (SG) (PI) (PI) (SG)
                 (SG) (PHI) (PHI) (DLTA) (DLTA) (SG) (PI) (PI)
                 (DLTA) (DLTA) (PI) (PI) (SG) (SG) (DLTA) (DLTA)
                 (PI) (PI) (SG) (PI) (PI) (SG) (PI) (PI) (SG) (?A)
                 (?A) (PHI) (PHI) (PI) (PI) (DLTA) (DLTA) (SG)
                 (SG) (PI) (PI) (DLTA) (DLTA) (PHI) (PHI) (SG)
                 (DLTA) (DLTA) (PI) (PI) (SG) (PHI) (PHI) (DLTA)
                 (DLTA) (PI) (PI) (SG) (SG) (DLTA) (DLTA) (PI)
                 (PI) (SG) (PI) (PI) (SG) (PI) (PI) (SG) (?A) (?A)
                 (PHI) (PHI) (DLTA) (DLTA) (DLTA) (DLTA) (PI) (PI)
                 (SG) (PI) (PI) (SG) (PHI) (PHI) (DLTA) (DLTA)
                 (PI) (PI) (SG) (PHI) (PHI) (DLTA) (DLTA) (PI)
                 (PI) (SG) (SG) (PI) (PI) (SG) (DLTA) (DLTA) (PI)
                 (PI) (SG) (SG)
 Beta  Orbitals:
       Occupied  (SG) (SG) (SG)
       Virtual   (PI) (PI) (SG) (SG) (SG) (PI) (PI) (SG) (PI) (PI)
                 (DLTA) (DLTA) (SG) (PI) (PI) (SG) (PI) (PI) (SG)
                 (SG) (SG) (PHI) (PHI) (DLTA) (DLTA) (PI) (PI)
                 (DLTA) (DLTA) (SG) (PI) (PI) (SG) (DLTA) (DLTA)
                 (PI) (PI) (SG) (PI) (PI) (SG) (PI) (PI) (SG) (?A)
                 (?A) (PHI) (PHI) (DLTA) (DLTA) (PI) (PI) (SG)
                 (DLTA) (DLTA) (SG) (PHI) (PHI) (PI) (PI) (DLTA)
                 (DLTA) (SG) (PI) (PI) (SG) (PHI) (PHI) (DLTA)
                 (DLTA) (SG) (PI) (PI) (SG) (DLTA) (DLTA) (PI)
                 (PI) (SG) (PI) (PI) (SG) (PI) (PI) (SG) (?A) (?A)
                 (PHI) (PHI) (DLTA) (DLTA) (DLTA) (DLTA) (PI) (PI)
                 (SG) (PI) (PI) (SG) (PHI) (PHI) (DLTA) (DLTA)
                 (PI) (PI) (SG) (PHI) (PHI) (DLTA) (DLTA) (PI)
                 (PI) (SG) (SG) (PI) (PI) (SG) (DLTA) (DLTA) (PI)
                 (PI) (SG) (SG)
    12 initial guesses have been made.
 Convergence on wavefunction:    0.001000000000000
 Davidson Disk Diagonalization:  ConvIn= 1.00D-03 SkipCon=T Conv= 1.00D-03.
 Max sub-space:  1476 roots to seek:    12 dimension of matrix:          738
 Iteration     1 Dimension    12 NMult     0 NNew     12
 CISAX will form    12 AO SS matrices at one time.
 NMat=    12 NSing=    12 JSym2X= 2.
 Excitation Energies [eV] at current iteration:
 Root      1 :     0.483916607014491
 Root      2 :     0.483916612842040
 Root      3 :     1.264982549571300
 Root      4 :     1.264982559540525
 Root      5 :     5.374668560180334
 Root      6 :     6.287316948922077
 Root      7 :     6.566144559818022
 Root      8 :     6.566144567881277
 Root      9 :    11.612593624234409
 Root     10 :    11.612593640343645
 Root     11 :    12.529661274314217
 Root     12 :    12.529661275910810
 Iteration     2 Dimension    24 NMult    12 NNew     12
 CISAX will form    12 AO SS matrices at one time.
 NMat=    12 NSing=    12 JSym2X= 2.
 Root      1 not converged, maximum delta is    0.063411270593851
 Excitation Energies [eV] at current iteration:
 Root      1 :     0.009860316391052   Change is   -0.474056290623439
 Root      2 :     0.009860322698105   Change is   -0.474056290143935
 Root      3 :     0.830074242189504   Change is   -0.434908307381795
 Root      4 :     0.830074250448145   Change is   -0.434908309092380
 Root      5 :     5.082889441434852   Change is   -0.291779118745482
 Root      6 :     5.847323044602446   Change is   -0.439993904319632
 Root      7 :     6.490676091364911   Change is   -0.075468468453110
 Root      8 :     6.490676098228058   Change is   -0.075468469653219
 Root      9 :     8.302770741463199   Change is   -3.309822898880445
 Root     10 :     8.302770741541041   Change is   -3.309822882693368
 Root     11 :    10.408512026388276   Change is   -2.121149247925940
 Root     12 :    10.408512028621548   Change is   -2.121149247289261
 Iteration     3 Dimension    27 NMult    24 NNew      3
 CISAX will form     3 AO SS matrices at one time.
 NMat=     3 NSing=     3 JSym2X= 2.
 Root      1 not converged, maximum delta is    0.006242525576937
 Excitation Energies [eV] at current iteration:
 Root      1 :     0.004032807407573   Change is   -0.005827508983479
 Root      2 :     0.004032814398307   Change is   -0.005827508299798
 Root      3 :     0.817980980660883   Change is   -0.012093261528622
 Iteration     4 Dimension    30 NMult    27 NNew      3
 CISAX will form     3 AO SS matrices at one time.
 NMat=     3 NSing=     3 JSym2X= 2.
 Root      1 has converged.
 Excitation Energies [eV] at current iteration:
 Root      1 :     0.003971361295648   Change is   -0.000061446111926
 Root      2 :     0.003971368094035   Change is   -0.000061446304271
 Root      3 :     0.817861291708450   Change is   -0.000119688952433
 Convergence achieved on expansion vectors.
 ***********************************************************************
 Stability analysis using <AA,BB:AA,BB> singles matrix:
 ***********************************************************************
 1PDM for each excited state written to RWF  633
 Ground to excited state transition densities written to RWF  633

 Eigenvectors of the stability matrix:
 
 Excited state symmetry could not be determined.
 Eigenvector   1:  2.272-?Sym  Eigenvalue= 0.0001459  <S**2>=1.041
      3A ->  6A       -0.68661
      3A ->  8A        0.65259
      3A -> 20A        0.28787
 The wavefunction is stable under the perturbations considered.
 Leave Link  914 at Sun May 22 18:32:38 2022, MaxMem=   104857600 cpu:               3.9 elap:               3.9
 (Enter /apps/software/g16/l508.exe)
 The wavefunction is already stable.
 Leave Link  508 at Sun May 22 18:32:38 2022, MaxMem=   104857600 cpu:               0.0 elap:               0.0
 (Enter /apps/software/g16/l601.exe)
 Copying SCF densities to generalized density rwf, IOpCl= 1 IROHF=0.

 **********************************************************************

            Population analysis using the SCF density.

 **********************************************************************

 Orbital symmetries:
 Alpha Orbitals:
       Occupied  (SG) (SG) (SG)
       Virtual   (SG) (PI) (PI) (SG) (PI) (PI) (SG) (SG) (PI) (PI)
                 (DLTA) (DLTA) (SG) (PI) (PI) (SG) (PI) (PI) (SG)
                 (SG) (PHI) (PHI) (DLTA) (DLTA) (SG) (PI) (PI)
                 (DLTA) (DLTA) (PI) (PI) (SG) (SG) (DLTA) (DLTA)
                 (PI) (PI) (SG) (PI) (PI) (SG) (PI) (PI) (SG) (?A)
                 (?A) (PHI) (PHI) (PI) (PI) (DLTA) (DLTA) (SG)
                 (SG) (PI) (PI) (DLTA) (DLTA) (PHI) (PHI) (SG)
                 (DLTA) (DLTA) (PI) (PI) (SG) (PHI) (PHI) (DLTA)
                 (DLTA) (PI) (PI) (SG) (SG) (DLTA) (DLTA) (PI)
                 (PI) (SG) (PI) (PI) (SG) (PI) (PI) (SG) (?A) (?A)
                 (PHI) (PHI) (DLTA) (DLTA) (DLTA) (DLTA) (PI) (PI)
                 (SG) (PI) (PI) (SG) (PHI) (PHI) (DLTA) (DLTA)
                 (PI) (PI) (SG) (PHI) (PHI) (DLTA) (DLTA) (PI)
                 (PI) (SG) (SG) (PI) (PI) (SG) (DLTA) (DLTA) (PI)
                 (PI) (SG) (SG)
 Beta  Orbitals:
       Occupied  (SG) (SG) (SG)
       Virtual   (PI) (PI) (SG) (SG) (SG) (PI) (PI) (SG) (PI) (PI)
                 (DLTA) (DLTA) (SG) (PI) (PI) (SG) (PI) (PI) (SG)
                 (SG) (SG) (PHI) (PHI) (DLTA) (DLTA) (PI) (PI)
                 (DLTA) (DLTA) (SG) (PI) (PI) (SG) (DLTA) (DLTA)
                 (PI) (PI) (SG) (PI) (PI) (SG) (PI) (PI) (SG) (?A)
                 (?A) (PHI) (PHI) (DLTA) (DLTA) (PI) (PI) (SG)
                 (DLTA) (DLTA) (SG) (PHI) (PHI) (PI) (PI) (DLTA)
                 (DLTA) (SG) (PI) (PI) (SG) (PHI) (PHI) (DLTA)
                 (DLTA) (SG) (PI) (PI) (SG) (DLTA) (DLTA) (PI)
                 (PI) (SG) (PI) (PI) (SG) (PI) (PI) (SG) (?A) (?A)
                 (PHI) (PHI) (DLTA) (DLTA) (DLTA) (DLTA) (PI) (PI)
                 (SG) (PI) (PI) (SG) (PHI) (PHI) (DLTA) (DLTA)
                 (PI) (PI) (SG) (PHI) (PHI) (DLTA) (DLTA) (PI)
                 (PI) (SG) (SG) (PI) (PI) (SG) (DLTA) (DLTA) (PI)
                 (PI) (SG) (SG)
 The electronic state is 1-SG.
 Alpha  occ. eigenvalues --   -7.70206  -0.54563  -0.31896
 Alpha virt. eigenvalues --    0.02097   0.02344   0.02344   0.04946   0.07705
 Alpha virt. eigenvalues --    0.07705   0.07775   0.10761   0.14327   0.14327
 Alpha virt. eigenvalues --    0.14553   0.14553   0.18396   0.22668   0.22668
 Alpha virt. eigenvalues --    0.24585   0.31158   0.31158   0.33080   0.34780
 Alpha virt. eigenvalues --    0.46168   0.46168   0.46387   0.46387   0.46715
 Alpha virt. eigenvalues --    0.46744   0.46744   0.50014   0.50014   0.50106
 Alpha virt. eigenvalues --    0.50106   0.50178   0.56967   0.63902   0.63902
 Alpha virt. eigenvalues --    0.70380   0.70380   0.80304   0.83906   0.83906
 Alpha virt. eigenvalues --    0.93288   1.05227   1.05227   1.06177   1.36974
 Alpha virt. eigenvalues --    1.36974   1.37899   1.37899   1.38461   1.38461
 Alpha virt. eigenvalues --    1.38496   1.38496   1.38529   1.39653   1.40394
 Alpha virt. eigenvalues --    1.40394   1.41082   1.41082   1.43875   1.43875
 Alpha virt. eigenvalues --    1.44007   1.44519   1.44519   1.46595   1.46595
 Alpha virt. eigenvalues --    1.53584   1.57627   1.57627   1.58509   1.58509
 Alpha virt. eigenvalues --    1.63736   1.63736   1.68146   1.81509   2.49565
 Alpha virt. eigenvalues --    2.49565   2.52990   2.52990   2.61622   2.64509
 Alpha virt. eigenvalues --    2.64509   2.72655   3.73787   3.73787   3.76459
 Alpha virt. eigenvalues --    3.91928   3.91928   3.93438   3.93438   3.94552
 Alpha virt. eigenvalues --    3.94552   3.95561   3.95561   3.95943   3.95943
 Alpha virt. eigenvalues --    3.96631   3.96670   3.96670   4.03408   4.08565
 Alpha virt. eigenvalues --    4.08565   4.10051   4.10051   4.12480   4.12480
 Alpha virt. eigenvalues --    4.17474   6.58558   6.58558   6.58704   6.58704
 Alpha virt. eigenvalues --    6.59596   6.59596   6.61295   7.52715   8.00227
 Alpha virt. eigenvalues --    8.00227   8.04429   8.43632   8.43632   8.45888
 Alpha virt. eigenvalues --    8.45888   8.52912  13.07329
  Beta  occ. eigenvalues --   -7.68699  -0.49422  -0.44658
  Beta virt. eigenvalues --    0.02707   0.02707   0.04284   0.05309   0.07803
  Beta virt. eigenvalues --    0.08404   0.08404   0.11554   0.14247   0.14247
  Beta virt. eigenvalues --    0.14559   0.14559   0.17955   0.21180   0.21180
  Beta virt. eigenvalues --    0.26072   0.31962   0.31962   0.34912   0.36055
  Beta virt. eigenvalues --    0.41974   0.46161   0.46161   0.46742   0.46742
  Beta virt. eigenvalues --    0.47322   0.47322   0.50120   0.50120   0.51214
  Beta virt. eigenvalues --    0.52952   0.52952   0.57801   0.62617   0.62617
  Beta virt. eigenvalues --    0.68860   0.68860   0.77408   0.77817   0.77817
  Beta virt. eigenvalues --    0.89742   1.06135   1.06135   1.13229   1.36946
  Beta virt. eigenvalues --    1.36946   1.38414   1.38414   1.39368   1.39368
  Beta virt. eigenvalues --    1.39379   1.39379   1.40033   1.41573   1.41573
  Beta virt. eigenvalues --    1.43407   1.43938   1.43938   1.45056   1.45056
  Beta virt. eigenvalues --    1.46052   1.46052   1.47630   1.49009   1.49009
  Beta virt. eigenvalues --    1.55976   1.56371   1.56371   1.57365   1.57365
  Beta virt. eigenvalues --    1.60391   1.63090   1.63090   1.78466   2.45626
  Beta virt. eigenvalues --    2.45626   2.48970   2.48970   2.56667   2.57244
  Beta virt. eigenvalues --    2.57244   2.66862   3.74486   3.74486   3.81223
  Beta virt. eigenvalues --    3.91995   3.91995   3.94525   3.94525   3.96002
  Beta virt. eigenvalues --    3.96002   3.96488   3.96488   3.98249   3.98249
  Beta virt. eigenvalues --    4.00138   4.00294   4.00294   4.07071   4.08831
  Beta virt. eigenvalues --    4.08831   4.12189   4.12189   4.15794   4.15794
  Beta virt. eigenvalues --    4.21250   6.55674   6.55674   6.55824   6.55824
  Beta virt. eigenvalues --    6.56724   6.56724   6.58430   7.44613   7.94444
  Beta virt. eigenvalues --    7.94444   7.98697   8.39412   8.39412   8.41685
  Beta virt. eigenvalues --    8.41685   8.48746  13.08484
          Condensed to atoms (all electrons):
               1          2
     1  B    4.999427  -0.000640
     2  H   -0.000640   1.001854
          Atomic-Atomic Spin Densities.
               1          2
     1  B    0.999293   0.001201
     2  H    0.001201  -1.001695
 Mulliken charges and spin densities:
               1          2
     1  B    0.001213   1.000494
     2  H   -0.001213  -1.000494
 Sum of Mulliken charges =  -0.00000   0.00000
 Mulliken charges and spin densities with hydrogens summed into heavy atoms:
               1          2
     1  B   -0.000000   0.000000
 Electronic spatial extent (au):  <R**2>=             66.5405
 Charge=             -0.0000 electrons
 Dipole moment (field-independent basis, Debye):
    X=              0.0000    Y=              0.0000    Z=              0.0435  Tot=              0.0435
 Quadrupole moment (field-independent basis, Debye-Ang):
   XX=             -7.3090   YY=             -7.3090   ZZ=            -10.8385
   XY=              0.0000   XZ=              0.0000   YZ=              0.0000
 Traceless Quadrupole moment (field-independent basis, Debye-Ang):
   XX=              1.1765   YY=              1.1765   ZZ=             -2.3530
   XY=              0.0000   XZ=              0.0000   YZ=              0.0000
 Octapole moment (field-independent basis, Debye-Ang**2):
  XXX=              0.0000  YYY=              0.0000  ZZZ=             -4.2296  XYY=              0.0000
  XXY=              0.0000  XXZ=              0.5536  XZZ=              0.0000  YZZ=              0.0000
  YYZ=              0.5536  XYZ=              0.0000
 Hexadecapole moment (field-independent basis, Debye-Ang**3):
 XXXX=            -10.7410 YYYY=            -10.7410 ZZZZ=           -139.9879 XXXY=              0.0000
 XXXZ=              0.0000 YYYX=              0.0000 YYYZ=              0.0000 ZZZX=              0.0000
 ZZZY=              0.0000 XXYY=             -3.5803 XXZZ=            -23.0683 YYZZ=            -23.0683
 XXYZ=              0.0000 YYXZ=              0.0000 ZZXY=              0.0000
 N-N= 6.614715136500D-01 E-N=-5.922616596617D+01  KE= 2.503164416930D+01
 Symmetry A1   KE= 2.503164416930D+01
 Symmetry A2   KE= 0.000000000000D+00
 Symmetry B1   KE= 0.000000000000D+00
 Symmetry B2   KE= 0.000000000000D+00
 Symmetry A1   SP= 2.405037341289D-16
 Symmetry A2   SP= 0.000000000000D+00
 Symmetry B1   SP= 0.000000000000D+00
 Symmetry B2   SP= 0.000000000000D+00
                          Isotropic Fermi Contact Couplings
        Atom                 a.u.       MegaHertz       Gauss      10(-4) cm-1
     1  B(11)              0.00079       0.56777       0.20259       0.18939
     2  H(1)              -0.29828    -666.64894    -237.87692    -222.37015
 --------------------------------------------------------
       Center         ----  Spin Dipole Couplings  ----
                      3XX-RR        3YY-RR        3ZZ-RR
 --------------------------------------------------------
     1   Atom       -0.328729     -0.328729      0.657458
     2   Atom       -0.003207     -0.003207      0.006415
 --------------------------------------------------------
                        XY            XZ            YZ
 --------------------------------------------------------
     1   Atom        0.000000      0.000000      0.000000
     2   Atom        0.000000      0.000000      0.000000
 --------------------------------------------------------


 ---------------------------------------------------------------------------------
              Anisotropic Spin Dipole Couplings in Principal Axis System
 ---------------------------------------------------------------------------------

       Atom             a.u.   MegaHertz   Gauss  10(-4) cm-1        Axes

              Baa    -0.3287   -56.283   -20.083   -18.774 -0.0000  1.0000  0.0000
     1 B(11)  Bbb    -0.3287   -56.283   -20.083   -18.774  1.0000  0.0000  0.0000
              Bcc     0.6575   112.567    40.167    37.548  0.0000  0.0000  1.0000
 
              Baa    -0.0032    -1.711    -0.611    -0.571  1.0000  0.0000  0.0000
     2 H(1)   Bbb    -0.0032    -1.711    -0.611    -0.571 -0.0000  1.0000  0.0000
              Bcc     0.0064     3.423     1.221     1.142  0.0000  0.0000  1.0000
 

 ---------------------------------------------------------------------------------

 No NMR shielding tensors so no spin-rotation constants.
 Leave Link  601 at Sun May 22 18:32:39 2022, MaxMem=   104857600 cpu:               0.2 elap:               0.2
 (Enter /apps/software/g16/l9999.exe)
 1\1\GINC-CNODE09\Stability\UHF\Aug-CC-pVQZ\B1H1\ROOT\22-May-2022\0\\#p
  UHF/aug-cc-pVQZ guess=mix stable=opt\\BH UHF at 4.0 Angstrom\\0,1\B,0
 ,0.,0.,0.\H,0,4.,0.,0.\\Version=ES64L-G16RevA.03\State=1-SG\HF=-25.033
 0123\S2=1.00757\S2-1=0.\S2A=0.088631\RMSD=9.112e-09\Dipole=-0.0171157,
 0.,0.\Quadrupole=-1.7494176,0.8747088,0.8747088,0.,0.,0.\PG=C*V [C*(H1
 B1)]\\@


 "TIGER, TIGER BURNING BRIGHT
 IN THE FOREST OF THE NIGHT.
 WHAT IMMORTAL HAND OR EYE
 CAN FRAME THY FEARFUL SYMMETRYE?"
                     - WILLIAM BLAKE
 Job cpu time:       0 days  0 hours  0 minutes 49.6 seconds.
 Elapsed time:       0 days  0 hours  0 minutes 49.7 seconds.
 File lengths (MBytes):  RWF=     33 Int=      0 D2E=      0 Chk=      4 Scr=      1
 Normal termination of Gaussian 16 at Sun May 22 18:32:39 2022.

Sender: Unischeduler System <lcz@mgt01>
Subject: Job 134196: <#!/bin/bash
#BSUB -J intel
#BSUB -o BH-4.0-UHF-G.out
#BSUB -n 8
#BSUB -q cqueue
#BSUB -R span[hosts=1]
export g16root=/apps/software
source /apps/software/g16/bsd/g16.profile
export GAUSS_SCRDIR=/scratch
/apps/software/g16/g16 < BH-4.0-UHF-G.inp > BH-4.0-UHF-G.out> Done

Job <#!/bin/bash
#BSUB -J intel
#BSUB -o BH-4.0-UHF-G.out
#BSUB -n 8
#BSUB -q cqueue
#BSUB -R span[hosts=1]
export g16root=/apps/software
source /apps/software/g16/bsd/g16.profile
export GAUSS_SCRDIR=/scratch
/apps/software/g16/g16 < BH-4.0-UHF-G.inp > BH-4.0-UHF-G.out> was submitted from host <mgt01> by user <lcz>.
Job was executed on host(s) <8*cnode09>, in queue <cqueue>, as user <lcz>.
</apps/users/lcz> was used as the home directory.
</apps/users/lcz/exe13/UCCSD> was used as the working directory.
Started at 2022-05-22 18:31:49
Results reported at 2022-05-22 18:32:39

Your job looked like:

------------------------------------------------------------
# User input
#!/bin/bash
#BSUB -J intel
#BSUB -o BH-4.0-UHF-G.out
#BSUB -n 8
#BSUB -q cqueue
#BSUB -R span[hosts=1]
export g16root=/apps/software
source /apps/software/g16/bsd/g16.profile
export GAUSS_SCRDIR=/scratch
/apps/software/g16/g16 < BH-4.0-UHF-G.inp > BH-4.0-UHF-G.out
------------------------------------------------------------

Successfully completed.

Resource usage summary:

    CPU time   :           41.57 sec.
    Max Memory :               482 MB
    Max Processes  :               5


The output (if any) follows:

