
                                        *****************
                                        * O   R   C   A *
                                        *****************

                                            #,                                       
                                            ###                                      
                                            ####                                     
                                            #####                                    
                                            ######                                   
                                           ########,                                 
                                     ,,################,,,,,                         
                               ,,#################################,,                 
                          ,,##########################################,,             
                       ,#########################################, ''#####,          
                    ,#############################################,,   '####,        
                  ,##################################################,,,,####,       
                ,###########''''           ''''###############################       
              ,#####''   ,,,,##########,,,,          '''####'''          '####       
            ,##' ,,,,###########################,,,                        '##       
           ' ,,###''''                  '''############,,,                           
         ,,##''                                '''############,,,,        ,,,,,,###''
      ,#''                                            '''#######################'''  
     '                                                          ''''####''''         
             ,#######,   #######,   ,#######,      ##                                
            ,#'     '#,  ##    ##  ,#'     '#,    #''#        ######   ,####,        
            ##       ##  ##   ,#'  ##            #'  '#       #        #'  '#        
            ##       ##  #######   ##           ,######,      #####,   #    #        
            '#,     ,#'  ##    ##  '#,     ,#' ,#      #,         ##   #,  ,#        
             '#######'   ##     ##  '#######'  #'      '#     #####' # '####'        



                  #######################################################
                  #                        -***-                        #
                  #          Department of theory and spectroscopy      #
                  #    Directorship and core code : Frank Neese         #
                  #        Max Planck Institute fuer Kohlenforschung    #
                  #                Kaiser Wilhelm Platz 1               #
                  #                 D-45470 Muelheim/Ruhr               #
                  #                      Germany                        #
                  #                                                     #
                  #                  All rights reserved                #
                  #                        -***-                        #
                  #######################################################


                         Program Version 5.0.0 -  RELEASE  -
                                (SVN: $Rev: 19529$)
                ($Date: 2021-06-28 11:36:33 +0200 (Mo, 28 Jun 2021) $)


 With contributions from (in alphabetic order):
   Daniel Aravena         : Magnetic Suceptibility
   Michael Atanasov       : Ab Initio Ligand Field Theory (pilot matlab implementation)
   Alexander A. Auer      : GIAO ZORA, VPT2 properties, NMR spectrum
   Ute Becker             : Parallelization
   Giovanni Bistoni       : ED, misc. LED, open-shell LED, HFLD
   Martin Brehm           : Molecular dynamics
   Dmytro Bykov           : SCF Hessian
   Vijay G. Chilkuri      : MRCI spin determinant printing, contributions to CSF-ICE
   Dipayan Datta          : RHF DLPNO-CCSD density
   Achintya Kumar Dutta   : EOM-CC, STEOM-CC
   Dmitry Ganyushin       : Spin-Orbit,Spin-Spin,Magnetic field MRCI
   Miquel Garcia          : C-PCM Hessian, Gaussian charge scheme
   Yang Guo               : DLPNO-NEVPT2, F12-NEVPT2, CIM, IAO-localization
   Andreas Hansen         : Spin unrestricted coupled pair/coupled cluster methods
   Benjamin Helmich-Paris : MC-RPA, TRAH-SCF, COSX integrals
   Lee Huntington         : MR-EOM, pCC
   Robert Izsak           : Overlap fitted RIJCOSX, COSX-SCS-MP3, EOM
   Marcus Kettner         : VPT2
   Christian Kollmar      : KDIIS, OOCD, Brueckner-CCSD(T), CCSD density, CASPT2, CASPT2-K
   Simone Kossmann        : Meta GGA functionals, TD-DFT gradient, OOMP2, MP2 Hessian
   Martin Krupicka        : Initial AUTO-CI
   Lucas Lang             : DCDCAS
   Marvin Lechner         : AUTO-CI (C++ implementation), FIC-MRCC
   Dagmar Lenk            : GEPOL surface, SMD
   Dimitrios Liakos       : Extrapolation schemes; Compound Job, initial MDCI parallelization
   Dimitrios Manganas     : Further ROCIS development; embedding schemes
   Dimitrios Pantazis     : SARC Basis sets
   Anastasios Papadopoulos: AUTO-CI, single reference methods and gradients
   Taras Petrenko         : DFT Hessian,TD-DFT gradient, ASA, ECA, R-Raman, ABS, FL, XAS/XES, NRVS
   Peter Pinski           : DLPNO-MP2, DLPNO-MP2 Gradient
   Christoph Reimann      : Effective Core Potentials
   Marius Retegan         : Local ZFS, SOC
   Christoph Riplinger    : Optimizer, TS searches, QM/MM, DLPNO-CCSD(T), (RO)-DLPNO pert. Triples
   Tobias Risthaus        : Range-separated hybrids, TD-DFT gradient, RPA, STAB
   Michael Roemelt        : Original ROCIS implementation
   Masaaki Saitow         : Open-shell DLPNO-CCSD energy and density
   Barbara Sandhoefer     : DKH picture change effects
   Avijit Sen             : IP-ROCIS
   Kantharuban Sivalingam : CASSCF convergence, NEVPT2, FIC-MRCI
   Bernardo de Souza      : ESD, SOC TD-DFT
   Georgi Stoychev        : AutoAux, RI-MP2 NMR
   Willem Van den Heuvel  : Paramagnetic NMR
   Boris Wezisla          : Elementary symmetry handling
   Frank Wennmohs         : Technical directorship


 We gratefully acknowledge several colleagues who have allowed us to
 interface, adapt or use parts of their codes:
   Stefan Grimme, W. Hujo, H. Kruse, P. Pracht,  : VdW corrections, initial TS optimization,
                  C. Bannwarth, S. Ehlert          DFT functionals, gCP, sTDA/sTD-DF
   Ed Valeev, F. Pavosevic, A. Kumar             : LibInt (2-el integral package), F12 methods
   Garnet Chan, S. Sharma, J. Yang, R. Olivares  : DMRG
   Ulf Ekstrom                                   : XCFun DFT Library
   Mihaly Kallay                                 : mrcc  (arbitrary order and MRCC methods)
   Jiri Pittner, Ondrej Demel                    : Mk-CCSD
   Frank Weinhold                                : gennbo (NPA and NBO analysis)
   Christopher J. Cramer and Donald G. Truhlar   : smd solvation model
   Lars Goerigk                                  : TD-DFT with DH, B97 family of functionals
   V. Asgeirsson, H. Jonsson                     : NEB implementation
   FAccTs GmbH                                   : IRC, NEB, NEB-TS, DLPNO-Multilevel, CI-OPT
                                                   MM, QMMM, 2- and 3-layer-ONIOM, Crystal-QMMM,
                                                   LR-CPCM, SF, NACMEs, symmetry and pop. for TD-DFT,
                                                   nearIR, NL-DFT gradient (VV10), updates on ESD,
                                                   ML-optimized integration grids
   S Lehtola, MJT Oliveira, MAL Marques          : LibXC Library
   Liviu Ungur et al                             : ANISO software


 Your calculation uses the libint2 library for the computation of 2-el integrals
 For citations please refer to: http://libint.valeyev.net

 Your ORCA version has been built with support for libXC version: 5.1.0
 For citations please refer to: https://tddft.org/programs/libxc/

 This ORCA versions uses:
   CBLAS   interface :  Fast vector & matrix operations
   LAPACKE interface :  Fast linear algebra routines
   SCALAPACK package :  Parallel linear algebra routines
   Shared memory     :  Shared parallel matrices
   BLAS/LAPACK       :  OpenBLAS 0.3.15  USE64BITINT DYNAMIC_ARCH NO_AFFINITY SkylakeX SINGLE_THREADED
        Core in use  :  SkylakeX
   Copyright (c) 2011-2014, The OpenBLAS Project


================================================================================

----- Orbital basis set information -----
Your calculation utilizes the basis: aug-cc-pVQZ 
    H, B-Ne : Obtained from the ccRepo (grant-hill.group.shef.ac.uk/ccrepo) Feb. 2017
              R. A. Kendall, T. H. Dunning, Jr., R. J. Harrison, J. Chem. Phys. 96, 6796 (1992)
         He : Obtained from the ccRepo (grant-hill.group.shef.ac.uk/ccrepo) Feb. 2017
              D. E. Woon, T. H. Dunning, Jr., J. Chem. Phys. 100, 2975 (1994)
  Li-Be, Na : Obtained from the ccRepo (grant-hill.group.shef.ac.uk/ccrepo) Feb. 2017
              B. P. Prascher, D. E. Woon, K. A. Peterson, T. H. Dunning, Jr., A. K. Wilson, Theor. Chem. Acc. 128, 69 (2011)
         Mg : Obtained from the Peterson Research Group Website (tyr0.chem.wsu.edu/~kipeters) Feb. 2017
              B. P. Prascher, D. E. Woon, K. A. Peterson, T. H. Dunning, Jr., A. K. Wilson, Theor. Chem. Acc. 128, 69 (2011)
      Al-Ar : Obtained from the ccRepo (grant-hill.group.shef.ac.uk/ccrepo) Feb. 2017
              D. E. Woon, T. H. Dunning, Jr., J. Chem. Phys. 98, 1358 (1993)
      Sc-Zn : Obtained from the ccRepo (grant-hill.group.shef.ac.uk/ccrepo) Feb. 2017
              N. B. Balabanov, K. A. Peterson, J. Chem. Phys. 123, 064107 (2005)
              N. B. Balabanov, K. A. Peterson, J. Chem. Phys. 125, 074110 (2006)
      Ga-Kr : Obtained from the ccRepo (grant-hill.group.shef.ac.uk/ccrepo) Feb. 2017
              A. K. Wilson, D. E. Woon, K. A. Peterson, T. H. Dunning, Jr., J. Chem. Phys. 110, 7667 (1999)

================================================================================
                                        WARNINGS
                       Please study these warnings very carefully!
================================================================================


INFO   : the flag for use of the SHARK integral package has been found!

================================================================================
                                       INPUT FILE
================================================================================
NAME = /scratch/BH-4.0-UHF-O_493/BH-4.0-UHF-O.inp
|  1> ! UHF aug-cc-pVQZ pal8 VeryTightSCF
|  2> 
|  3> %scf
|  4> 	STABPerform	True
|  5> 	STABRestartUHFifUnstable	True
|  6> end
|  7> 
|  8> *xyz 0 1
|  9>  B	0.0	0.0	0.0
| 10>  H	4.0	0.0	0.0
| 11> **                         ****END OF INPUT****
================================================================================

                       ****************************
                       * Single Point Calculation *
                       ****************************

---------------------------------
CARTESIAN COORDINATES (ANGSTROEM)
---------------------------------
  B      0.000000    0.000000    0.000000
  H      4.000000    0.000000    0.000000

----------------------------
CARTESIAN COORDINATES (A.U.)
----------------------------
  NO LB      ZA    FRAG     MASS         X           Y           Z
   0 B     5.0000    0    10.810    0.000000    0.000000    0.000000
   1 H     1.0000    0     1.008    7.558905    0.000000    0.000000

--------------------------------
INTERNAL COORDINATES (ANGSTROEM)
--------------------------------
 B      0   0   0     0.000000000000     0.00000000     0.00000000
 H      1   0   0     4.000000000000     0.00000000     0.00000000

---------------------------
INTERNAL COORDINATES (A.U.)
---------------------------
 B      0   0   0     0.000000000000     0.00000000     0.00000000
 H      1   0   0     7.558904535685     0.00000000     0.00000000

---------------------
BASIS SET INFORMATION
---------------------
There are 2 groups of distinct atoms

 Group   1 Type B   : 22s7p4d3f2g contracted to 6s5p4d3f2g pattern {991111/31111/1111/111/11}
 Group   2 Type H   : 7s4p3d2f contracted to 5s4p3d2f pattern {31111/1111/111/11}

Atom   0B    basis set group =>   1
Atom   1H    basis set group =>   2
--------------------------------------------------------------------------
WARNING: There was an error initializing an OpenFabrics device.

  Local host:   cnode08
  Local device: mlx5_0
--------------------------------------------------------------------------


           ************************************************************
           *        Program running with 8 parallel MPI-processes     *
           *              working on a common directory               *
           ************************************************************
------------------------------------------------------------------------------
                           ORCA GTO INTEGRAL CALCULATION
------------------------------------------------------------------------------
------------------------------------------------------------------------------
                   ___                                                        
                  /   \      - P O W E R E D   B Y -                         
                 /     \                                                     
                 |  |  |   _    _      __       _____    __    __             
                 |  |  |  | |  | |    /  \     |  _  \  |  |  /  |          
                  \  \/   | |  | |   /    \    | | | |  |  | /  /          
                 / \  \   | |__| |  /  /\  \   | |_| |  |  |/  /          
                |  |  |   |  __  | /  /__\  \  |    /   |      \           
                |  |  |   | |  | | |   __   |  |    \   |  |\   \          
                \     /   | |  | | |  |  |  |  | |\  \  |  | \   \       
                 \___/    |_|  |_| |__|  |__|  |_| \__\ |__|  \__/        
                                                                              
                      - O R C A' S   B I G   F R I E N D -                    
                                      &                                       
                       - I N T E G R A L  F E E D E R -                       
                                                                              
 v1 FN, 2020, v2 2021                                                         
------------------------------------------------------------------------------


Reading SHARK input file /scratch/BH-4.0-UHF-O_493/BH-4.0-UHF-O.SHARKINP.tmp ... ok
----------------------
SHARK INTEGRAL PACKAGE
----------------------

Number of atoms                             ...      2
Number of basis functions                   ...    126
Number of shells                            ...     34
Maximum angular momentum                    ...      4
Integral batch strategy                     ... SHARK/LIBINT Hybrid
RI-J (if used) integral strategy            ... SPLIT-RIJ (Revised 2003 algorithm where possible)
Printlevel                                  ...      1
Contraction scheme used                     ... SEGMENTED contraction
Coulomb Range Separation                    ... NOT USED
Exchange Range Separation                   ... NOT USED
Finite Nucleus Model                        ... NOT USED
Auxiliary Coulomb fitting basis             ... NOT available
Auxiliary J/K fitting basis                 ... NOT available
Auxiliary Correlation fitting basis         ... NOT available
Auxiliary 'external' fitting basis          ... NOT available
Integral threshold                          ...     1.000000e-12
Primitive cut-off                           ...     1.000000e-14
Primitive pair pre-selection threshold      ...     1.000000e-14

Calculating pre-screening integrals         ... done (  0.1 sec) Dimension = 34
Organizing shell pair data                  ... done (  0.0 sec)
Shell pair information
Total number of shell pairs                 ...       595
Shell pairs after pre-screening             ...       578
Total number of primitive shell pairs       ...      1563
Primitive shell pairs kept                  ...      1375
          la=0 lb=0:     63 shell pairs
          la=1 lb=0:     96 shell pairs
          la=1 lb=1:     44 shell pairs
          la=2 lb=0:     74 shell pairs
          la=2 lb=1:     61 shell pairs
          la=2 lb=2:     27 shell pairs
          la=3 lb=0:     52 shell pairs
          la=3 lb=1:     44 shell pairs
          la=3 lb=2:     35 shell pairs
          la=3 lb=3:     15 shell pairs
          la=4 lb=0:     22 shell pairs
          la=4 lb=1:     18 shell pairs
          la=4 lb=2:     14 shell pairs
          la=4 lb=3:     10 shell pairs
          la=4 lb=4:      3 shell pairs

Calculating one electron integrals          ... done (  0.0 sec)
Calculating Nuclear repulsion               ... done (  0.0 sec) ENN=      0.661471510375 Eh

SHARK setup successfully completed in   0.1 seconds

Maximum memory used throughout the entire GTOINT-calculation: 28.9 MB
[cnode08:319469] 7 more processes have sent help message help-mpi-btl-openib.txt / error in device init
[cnode08:319469] Set MCA parameter "orte_base_help_aggregate" to 0 to see all help / error messages
--------------------------------------------------------------------------
WARNING: There was an error initializing an OpenFabrics device.

  Local host:   cnode08
  Local device: mlx5_0
--------------------------------------------------------------------------


           ************************************************************
           *        Program running with 8 parallel MPI-processes     *
           *              working on a common directory               *
           ************************************************************
-------------------------------------------------------------------------------
                                 ORCA SCF
-------------------------------------------------------------------------------

------------
SCF SETTINGS
------------
Hamiltonian:
 Ab initio Hamiltonian  Method          .... Hartree-Fock(GTOs)


General Settings:
 Integral files         IntName         .... /scratch/BH-4.0-UHF-O_493/BH-4.0-UHF-O
 Hartree-Fock type      HFTyp           .... UHF
 Total Charge           Charge          ....    0
 Multiplicity           Mult            ....    1
 Number of Electrons    NEL             ....    6
 Basis Dimension        Dim             ....  126
 Nuclear Repulsion      ENuc            ....      0.6614715104 Eh

Convergence Acceleration:
 DIIS                   CNVDIIS         .... on
   Start iteration      DIISMaxIt       ....    12
   Startup error        DIISStart       ....  0.200000
   # of expansion vecs  DIISMaxEq       ....     5
   Bias factor          DIISBfac        ....   1.050
   Max. coefficient     DIISMaxC        ....  10.000
 Trust-Rad. Augm. Hess. CNVTRAH         .... auto
   Auto Start mean grad. ratio tolernc. ....  1.125000
   Auto Start start iteration           ....    20
   Auto Start num. interpolation iter.  ....    10
   Max. Number of Micro iterations      ....    16
   Max. Number of Macro iterations      .... Maxiter - #DIIS iter
   Number of Davidson start vectors     ....     2
   Converg. threshold I  (grad. norm)   ....   2.000e-06
   Converg. threshold II (energy diff.) ....   1.000e-09
   Grad. Scal. Fac. for Micro threshold ....   0.100
   Minimum threshold for Micro iter.    ....   0.010
   NR start threshold (gradient norm)   ....   0.001
   Initial trust radius                 ....   0.400
   Minimum AH scaling param. (alpha)    ....   1.000
   Maximum AH scaling param. (alpha)    .... 1000.000
   Orbital update algorithm             .... Taylor
   White noise on init. David. guess    .... on
   Maximum white noise                  ....   0.010
   Quad. conv. algorithm                .... NR
 SOSCF                  CNVSOSCF        .... off
 Level Shifting         CNVShift        .... on
   Level shift para.    LevelShift      ....    0.2500
   Turn off err/grad.   ShiftErr        ....    0.0010
 Zerner damping         CNVZerner       .... off
 Static damping         CNVDamp         .... on
   Fraction old density DampFac         ....    0.7000
   Max. Damping (<1)    DampMax         ....    0.9800
   Min. Damping (>=0)   DampMin         ....    0.0000
   Turn off err/grad.   DampErr         ....    0.1000
 Fernandez-Rico         CNVRico         .... off

SCF Procedure:
 Maximum # iterations   MaxIter         ....   125
 SCF integral mode      SCFMode         .... Direct
   Integral package                     .... SHARK and LIBINT hybrid scheme
 Reset frequency        DirectResetFreq ....    20
 Integral Threshold     Thresh          ....  1.000e-12 Eh
 Primitive CutOff       TCut            ....  1.000e-14 Eh

Convergence Tolerance:
 Convergence Check Mode ConvCheckMode   .... Total+1el-Energy
 Convergence forced     ConvForced      .... 0
 Energy Change          TolE            ....  1.000e-09 Eh
 1-El. energy change                    ....  1.000e-06 Eh
 DIIS Error             TolErr          ....  1.000e-08


Diagonalization of the overlap matrix:
Smallest eigenvalue                        ... 4.830e-03
Time for diagonalization                   ...    0.002 sec
Threshold for overlap eigenvalues          ... 1.000e-08
Number of eigenvalues below threshold      ... 0
Time for construction of square roots      ...    0.002 sec
Total time needed                          ...    0.004 sec

Time for model grid setup =    0.008 sec

------------------------------
INITIAL GUESS: MODEL POTENTIAL
------------------------------
Loading Hartree-Fock densities                     ... done
Calculating cut-offs                               ... done
Initializing the effective Hamiltonian             ... done
Setting up the integral package (SHARK)            ... done
Starting the Coulomb interaction                   ... done (   0.0 sec)
Reading the grid                                   ... done
Mapping shells                                     ... done
Starting the XC term evaluation                    ... done (   0.0 sec)
Transforming the Hamiltonian                       ... done (   0.0 sec)
Diagonalizing the Hamiltonian                      ... done (   0.0 sec)
Back transforming the eigenvectors                 ... done (   0.0 sec)
Now organizing SCF variables                       ... done
                      ------------------
                      INITIAL GUESS DONE (   0.0 sec)
                      ------------------
--------------
SCF ITERATIONS
--------------
ITER       Energy         Delta-E        Max-DP      RMS-DP      [F,P]     Damp
               ***  Starting incremental Fock matrix formation  ***
  0    -24.7912830286   0.000000000000 0.02249509  0.00046288  0.2015273 0.7000
  1    -24.8147498122  -0.023466783544 0.02306217  0.00045655  0.1557679 0.7000
                               ***Turning on DIIS***
  2    -24.8398293797  -0.025079567485 0.01940147  0.00039742  0.1069728 0.7000
  3    -24.7679483668   0.071881012832 0.04397991  0.00093627  0.0675862 0.0000
  4    -24.9271258626  -0.159177495761 0.00629289  0.00013021  0.0156450 0.0000
  5    -24.9133063960   0.013819466577 0.00444006  0.00009403  0.0065551 0.0000
  6    -24.9055665376   0.007739858435 0.00253864  0.00004260  0.0019681 0.0000
  7    -24.9035196370   0.002046900583 0.00104940  0.00002011  0.0010147 0.0000
  8    -24.9032657447   0.000253892250 0.00119616  0.00002176  0.0005049 0.0000
  9    -24.9032619350   0.000003809695 0.00021723  0.00000436  0.0000704 0.0000
 10    -24.9032479490   0.000013986091 0.00005144  0.00000116  0.0000206 0.0000
 11    -24.9032788201  -0.000030871113 0.00000642  0.00000014  0.0000060 0.0000
 12    -24.9032700181   0.000008801978 0.00000195  0.00000003  0.0000009 0.0000
 13    -24.9032704677  -0.000000449568 0.00000057  0.00000001  0.0000003 0.0000
 14    -24.9032701400   0.000000327609 0.00000007  0.00000000  0.0000000 0.0000
                            ***DIIS convergence achieved***

               *****************************************************
               *                     SUCCESS                       *
               *           SCF CONVERGED AFTER  15 CYCLES          *
               *****************************************************


------------------------------------------------------------------------------
                          SCF STABILITY ANALYSIS                              
------------------------------------------------------------------------------


                       ****Iteration    0****

   Memory handling for direct AO based CIS:
   Memory per vector needed      ...     1 MB
   Memory needed                 ...     4 MB
   Memory available              ...  1024 MB
   Number of vectors per batch   ...  1024
   Number of batches             ...     1
   Time for densities:     0.001
   Using LibInt in JK Direct
   Time for J+K (Direct):     1.623
   Time for Sigma-Completion:     0.001
   Lowest Energy          :    -0.193398376734
   Maximum Energy change  :     0.193398376734 (vector 0)
   Maximum residual norm  :     0.022340769373

                       ****Iteration    1****
   Time for densities:     0.000
   Using LibInt in JK Direct
[cnode08:319529] 7 more processes have sent help message help-mpi-btl-openib.txt / error in device init
[cnode08:319529] Set MCA parameter "orte_base_help_aggregate" to 0 to see all help / error messages
   Time for J+K (Direct):     0.828
   Time for Sigma-Completion:     0.001
   Lowest Energy          :    -0.238151498929
   Maximum Energy change  :     0.044753122194 (vector 0)
   Maximum residual norm  :     0.000772395676

                       ****Iteration    2****
   Time for densities:     0.000
   Using LibInt in JK Direct
   Time for J+K (Direct):     0.863
   Time for Sigma-Completion:     0.002
   Lowest Energy          :    -0.239487101850
   Maximum Energy change  :     0.003357936546 (vector 1)
   Maximum residual norm  :     0.001132445407

                       ****Iteration    3****
   Time for densities:     0.000
   Using LibInt in JK Direct
   Time for J+K (Direct):     0.868
   Time for Sigma-Completion:     0.001
   Lowest Energy          :    -0.239509810454
   Maximum Energy change  :     0.002580919877 (vector 1)
   Maximum residual norm  :     0.000096626651

      *** CONVERGENCE OF RESIDUAL NORM REACHED ***

----------------------------- 
SCF STABILITY ANALYSIS RESULT 
----------------------------- 

UHF/UKS->UHF/UKS - singlet - internal

   Root    Eigenvalue (au) 
     0      -0.239510 
     1      -0.011621 
     2      -0.011621 

Stability Analysis indicates an UNSTABLE HF/KS wave function with SEVERAL negative eigenvalues.

Since this is UHF/UKS, we will restart the SCF using a new guess based on the eigenvector 
associated with the lowest eigenvalue. Because there is no guarantee that the restart     
will result in a stable solution, the user should check the stability of the resulting    
wave function in a separate calculation using the MOREAD guess feature.

Obtain new guess               ... done 

Total time for performing the stability analysis:     4.200sec

--------------------------
SCF ITERATIONS (restarted)
--------------------------
ITER       Energy         Delta-E        Max-DP      RMS-DP      [F,P]     Damp
               ***  Starting incremental Fock matrix formation  ***
  0    -24.9411453192   0.000000000000 0.01234394  0.00013456  0.0290970 0.7000
  1    -24.9474673784  -0.006322059140 0.01510050  0.00017711  0.0282224 0.7000
                               ***Turning on DIIS***
  2    -24.9558765612  -0.008409182767 0.04842893  0.00062092  0.0271048 0.0000
  3    -25.1223098930  -0.166433331833 0.01550086  0.00021590  0.0268420 0.0000
  4    -25.1241522178  -0.001842324822 0.00887561  0.00012976  0.0307785 0.0000
  5    -25.1184618438   0.005690373974 0.00618945  0.00009535  0.0320291 0.0000
  6    -25.1118652784   0.006596565449 0.00514574  0.00007467  0.0319448 0.0000
  7    -24.9589222073   0.152943071069 0.03962728  0.00061575  0.0314328 0.0000
  8    -25.0133609079  -0.054438700636 0.01809830  0.00030441  0.0260809 0.0000
  9    -24.9999937455   0.013367162491 0.02385089  0.00037890  0.0249355 0.0000
 10    -24.9956510870   0.004342658488 0.02353060  0.00038922  0.0204171 0.0000
 11    -25.0285892444  -0.032938157387 0.00638290  0.00009910  0.0114692 0.0000
 12    -25.0223018564   0.006287387911 0.00750383  0.00011964  0.0061014 0.0000
 13    -25.0300482876  -0.007746431131 0.00196392  0.00003168  0.0029439 0.0000
 14    -25.0312802509  -0.001231963291 0.00092342  0.00001547  0.0014738 0.0000
 15    -25.0322877160  -0.001007465096 0.00079066  0.00001168  0.0006984 0.0000
 16    -25.0330607090  -0.000772992991 0.00028729  0.00000387  0.0001191 0.0000
 17    -25.0330508521   0.000009856893 0.00012169  0.00000166  0.0000384 0.0000
 18    -25.0330241290   0.000026723060 0.00002463  0.00000050  0.0000190 0.0000
 19    -25.0330152439   0.000008885114 0.00001447  0.00000023  0.0000103 0.0000
               *** Restarting incremental Fock matrix formation ***
                                   *** Resetting DIIS ***
 20    -25.0330124983   0.000002745637 0.00000317  0.00000006  0.0000038 0.0000
 21    -25.0330112299   0.000001268399 0.00000449  0.00000008  0.0000026 0.0000
 22    -25.0330120710  -0.000000841156 0.00000122  0.00000002  0.0000009 0.0000
 23    -25.0330125378  -0.000000466786 0.00000038  0.00000001  0.0000002 0.0000
 24    -25.0330125510  -0.000000013230 0.00000031  0.00000000  0.0000001 0.0000
 25    -25.0330125258   0.000000025271 0.00000012  0.00000000  0.0000000 0.0000
                            ***DIIS convergence achieved***

               *****************************************************
               *                     SUCCESS                       *
               *           SCF CONVERGED AFTER  26 CYCLES          *
               *****************************************************


----------------
TOTAL SCF ENERGY
----------------

Total Energy       :          -25.03301251 Eh            -681.18290 eV

Components:
Nuclear Repulsion  :            0.66147151 Eh              17.99955 eV
Electronic Energy  :          -25.69448402 Eh            -699.18246 eV
One Electron Energy:          -34.19451486 Eh            -930.48005 eV
Two Electron Energy:            8.50003084 Eh             231.29760 eV

Virial components:
Potential Energy   :          -50.06468730 Eh           -1362.32940 eV
Kinetic Energy     :           25.03167479 Eh             681.14650 eV
Virial Ratio       :            2.00005344


---------------
SCF CONVERGENCE
---------------

  Last Energy change         ...    1.8113e-08  Tolerance :   1.0000e-09
  Last MAX-Density change    ...    2.3266e-08  Tolerance :   1.0000e-08
  Last RMS-Density change    ...    3.1243e-10  Tolerance :   1.0000e-09
  Last DIIS Error            ...    9.2670e-09  Tolerance :   1.0000e-08

             **** THE GBW FILE WAS UPDATED (/scratch/BH-4.0-UHF-O_493/BH-4.0-UHF-O.gbw) ****
             **** DENSITY /scratch/BH-4.0-UHF-O_493/BH-4.0-UHF-O.scfp WAS UPDATED ****
             **** ENERGY FILE WAS UPDATED (/scratch/BH-4.0-UHF-O_493/BH-4.0-UHF-O.en.tmp) ****

     --------------------------------------------------------------------
                                      WARNING
     A stability analysis of the first UHF/UKS SCF solution was performed
     and an instability detected. The result was used as a guess for
     a second SCF, which has converged. There is no guarantee that the
     current solution is stable - it is up to you to rerun the stability
     analysis using the now stored solution as a guess and verify.
     --------------------------------------------------------------------

----------------------
UHF SPIN CONTAMINATION
----------------------

Expectation value of <S**2>     :     1.007570
Ideal value S*(S+1) for S=0.0   :     0.000000
Deviation                       :     1.007570

             **** THE GBW FILE WAS UPDATED (/scratch/BH-4.0-UHF-O_493/BH-4.0-UHF-O.gbw) ****
             **** DENSITY /scratch/BH-4.0-UHF-O_493/BH-4.0-UHF-O.scfp WAS UPDATED ****
----------------
ORBITAL ENERGIES
----------------
                 SPIN UP ORBITALS
  NO   OCC          E(Eh)            E(eV) 
   0   1.0000      -7.686997      -209.1738 
   1   1.0000      -0.494217       -13.4483 
   2   1.0000      -0.446577       -12.1520 
   3   0.0000       0.027071         0.7366 
   4   0.0000       0.027071         0.7366 
   5   0.0000       0.042836         1.1656 
   6   0.0000       0.053091         1.4447 
   7   0.0000       0.078028         2.1232 
   8   0.0000       0.084037         2.2868 
   9   0.0000       0.084037         2.2868 
  10   0.0000       0.115540         3.1440 
  11   0.0000       0.142474         3.8769 
  12   0.0000       0.142474         3.8769 
  13   0.0000       0.145586         3.9616 
  14   0.0000       0.145586         3.9616 
  15   0.0000       0.179551         4.8858 
  16   0.0000       0.211798         5.7633 
  17   0.0000       0.211798         5.7633 
  18   0.0000       0.260717         7.0945 
  19   0.0000       0.319621         8.6973 
  20   0.0000       0.319621         8.6973 
  21   0.0000       0.349118         9.5000 
  22   0.0000       0.360553         9.8111 
  23   0.0000       0.419738        11.4217 
  24   0.0000       0.461610        12.5610 
  25   0.0000       0.461610        12.5610 
  26   0.0000       0.467424        12.7192 
  27   0.0000       0.467424        12.7192 
  28   0.0000       0.473223        12.8771 
  29   0.0000       0.473223        12.8771 
  30   0.0000       0.501199        13.6383 
  31   0.0000       0.501199        13.6383 
  32   0.0000       0.512140        13.9360 
  33   0.0000       0.529518        14.4089 
  34   0.0000       0.529518        14.4089 
  35   0.0000       0.578013        15.7285 
  36   0.0000       0.626169        17.0389 
  37   0.0000       0.626169        17.0389 
  38   0.0000       0.688598        18.7377 
  39   0.0000       0.688598        18.7377 
  40   0.0000       0.774083        21.0639 
  41   0.0000       0.778167        21.1750 
  42   0.0000       0.778167        21.1750 
  43   0.0000       0.897422        24.4201 
  44   0.0000       1.061346        28.8807 
  45   0.0000       1.061346        28.8807 
  46   0.0000       1.132286        30.8111 
  47   0.0000       1.369464        37.2650 
  48   0.0000       1.369464        37.2650 
  49   0.0000       1.384144        37.6645 
  50   0.0000       1.384144        37.6645 
  51   0.0000       1.393683        37.9240 
  52   0.0000       1.393683        37.9240 
  53   0.0000       1.393787        37.9269 
  54   0.0000       1.393787        37.9269 
  55   0.0000       1.400333        38.1050 
  56   0.0000       1.415733        38.5241 
  57   0.0000       1.415733        38.5241 
  58   0.0000       1.434064        39.0229 
  59   0.0000       1.439384        39.1676 
  60   0.0000       1.439384        39.1676 
  61   0.0000       1.450564        39.4718 
  62   0.0000       1.450564        39.4718 
  63   0.0000       1.460525        39.7429 
  64   0.0000       1.460525        39.7429 
  65   0.0000       1.476299        40.1721 
  66   0.0000       1.490087        40.5473 
  67   0.0000       1.490087        40.5473 
  68   0.0000       1.559760        42.4432 
  69   0.0000       1.563708        42.5507 
  70   0.0000       1.563708        42.5507 
  71   0.0000       1.573652        42.8212 
  72   0.0000       1.573652        42.8212 
  73   0.0000       1.603906        43.6445 
  74   0.0000       1.630899        44.3790 
  75   0.0000       1.630899        44.3790 
  76   0.0000       1.784665        48.5632 
  77   0.0000       2.456255        66.8381 
  78   0.0000       2.456255        66.8381 
  79   0.0000       2.489703        67.7483 
  80   0.0000       2.489703        67.7483 
  81   0.0000       2.566670        69.8426 
  82   0.0000       2.572445        69.9998 
  83   0.0000       2.572445        69.9998 
  84   0.0000       2.668623        72.6169 
  85   0.0000       3.744861       101.9029 
  86   0.0000       3.744861       101.9029 
  87   0.0000       3.812230       103.7360 
  88   0.0000       3.919954       106.6674 
  89   0.0000       3.919954       106.6674 
  90   0.0000       3.945247       107.3556 
  91   0.0000       3.945247       107.3556 
  92   0.0000       3.960023       107.7577 
  93   0.0000       3.960023       107.7577 
  94   0.0000       3.964884       107.8900 
  95   0.0000       3.964884       107.8900 
  96   0.0000       3.982488       108.3690 
  97   0.0000       3.982488       108.3690 
  98   0.0000       4.001379       108.8830 
  99   0.0000       4.002940       108.9255 
 100   0.0000       4.002940       108.9255 
 101   0.0000       4.070705       110.7695 
 102   0.0000       4.088311       111.2486 
 103   0.0000       4.088311       111.2486 
 104   0.0000       4.121889       112.1623 
 105   0.0000       4.121889       112.1623 
 106   0.0000       4.157940       113.1433 
 107   0.0000       4.157940       113.1433 
 108   0.0000       4.212496       114.6278 
 109   0.0000       6.556745       178.4181 
 110   0.0000       6.556745       178.4181 
 111   0.0000       6.558241       178.4588 
 112   0.0000       6.558241       178.4588 
 113   0.0000       6.567237       178.7036 
 114   0.0000       6.567237       178.7036 
 115   0.0000       6.584296       179.1678 
 116   0.0000       7.446126       202.6194 
 117   0.0000       7.944438       216.1792 
 118   0.0000       7.944438       216.1792 
 119   0.0000       7.986968       217.3364 
 120   0.0000       8.394124       228.4157 
 121   0.0000       8.394124       228.4157 
 122   0.0000       8.416850       229.0341 
 123   0.0000       8.416850       229.0341 
 124   0.0000       8.487459       230.9555 
 125   0.0000      13.084238       356.0402 

                 SPIN DOWN ORBITALS
  NO   OCC          E(Eh)            E(eV) 
   0   1.0000      -7.702068      -209.5839 
   1   1.0000      -0.545632       -14.8474 
   2   1.0000      -0.318962        -8.6794 
   3   0.0000       0.020972         0.5707 
   4   0.0000       0.023441         0.6379 
   5   0.0000       0.023441         0.6379 
   6   0.0000       0.049460         1.3459 
   7   0.0000       0.077046         2.0965 
   8   0.0000       0.077046         2.0965 
   9   0.0000       0.077754         2.1158 
  10   0.0000       0.107609         2.9282 
  11   0.0000       0.143275         3.8987 
  12   0.0000       0.143275         3.8987 
  13   0.0000       0.145532         3.9601 
  14   0.0000       0.145532         3.9601 
  15   0.0000       0.183959         5.0058 
  16   0.0000       0.226684         6.1684 
  17   0.0000       0.226684         6.1684 
  18   0.0000       0.245854         6.6900 
  19   0.0000       0.311584         8.4786 
  20   0.0000       0.311584         8.4786 
  21   0.0000       0.330801         9.0015 
  22   0.0000       0.347804         9.4642 
  23   0.0000       0.461683        12.5630 
  24   0.0000       0.461683        12.5630 
  25   0.0000       0.463865        12.6224 
  26   0.0000       0.463865        12.6224 
  27   0.0000       0.467146        12.7117 
  28   0.0000       0.467440        12.7197 
  29   0.0000       0.467440        12.7197 
  30   0.0000       0.500138        13.6094 
  31   0.0000       0.500138        13.6094 
  32   0.0000       0.501064        13.6346 
  33   0.0000       0.501064        13.6346 
  34   0.0000       0.501778        13.6541 
  35   0.0000       0.569674        15.5016 
  36   0.0000       0.639022        17.3887 
  37   0.0000       0.639022        17.3887 
  38   0.0000       0.703798        19.1513 
  39   0.0000       0.703798        19.1513 
  40   0.0000       0.803042        21.8519 
  41   0.0000       0.839059        22.8319 
  42   0.0000       0.839059        22.8319 
  43   0.0000       0.932881        25.3850 
  44   0.0000       1.052269        28.6337 
  45   0.0000       1.052269        28.6337 
  46   0.0000       1.061774        28.8923 
  47   0.0000       1.369741        37.2726 
  48   0.0000       1.369741        37.2726 
  49   0.0000       1.378989        37.5242 
  50   0.0000       1.378989        37.5242 
  51   0.0000       1.384613        37.6772 
  52   0.0000       1.384613        37.6772 
  53   0.0000       1.384965        37.6868 
  54   0.0000       1.384965        37.6868 
  55   0.0000       1.385284        37.6955 
  56   0.0000       1.396532        38.0016 
  57   0.0000       1.403943        38.2032 
  58   0.0000       1.403943        38.2032 
  59   0.0000       1.410818        38.3903 
  60   0.0000       1.410818        38.3903 
  61   0.0000       1.438754        39.1505 
  62   0.0000       1.438754        39.1505 
  63   0.0000       1.440063        39.1861 
  64   0.0000       1.445190        39.3256 
  65   0.0000       1.445190        39.3256 
  66   0.0000       1.465947        39.8905 
  67   0.0000       1.465947        39.8905 
  68   0.0000       1.535837        41.7922 
  69   0.0000       1.576268        42.8924 
  70   0.0000       1.576268        42.8924 
  71   0.0000       1.585091        43.1325 
  72   0.0000       1.585091        43.1325 
  73   0.0000       1.637359        44.5548 
  74   0.0000       1.637359        44.5548 
  75   0.0000       1.681457        45.7548 
  76   0.0000       1.815085        49.3910 
  77   0.0000       2.495647        67.9100 
  78   0.0000       2.495647        67.9100 
  79   0.0000       2.529898        68.8420 
  80   0.0000       2.529898        68.8420 
  81   0.0000       2.616219        71.1909 
  82   0.0000       2.645094        71.9767 
  83   0.0000       2.645094        71.9767 
  84   0.0000       2.726549        74.1932 
  85   0.0000       3.737866       101.7125 
  86   0.0000       3.737866       101.7125 
  87   0.0000       3.764592       102.4398 
  88   0.0000       3.919276       106.6489 
  89   0.0000       3.919276       106.6489 
  90   0.0000       3.934379       107.0599 
  91   0.0000       3.934379       107.0599 
  92   0.0000       3.945523       107.3631 
  93   0.0000       3.945523       107.3631 
  94   0.0000       3.955608       107.6376 
  95   0.0000       3.955608       107.6376 
  96   0.0000       3.959429       107.7415 
  97   0.0000       3.959429       107.7415 
  98   0.0000       3.966305       107.9287 
  99   0.0000       3.966698       107.9393 
 100   0.0000       3.966698       107.9393 
 101   0.0000       4.034077       109.7728 
 102   0.0000       4.085653       111.1763 
 103   0.0000       4.085653       111.1763 
 104   0.0000       4.100512       111.5806 
 105   0.0000       4.100512       111.5806 
 106   0.0000       4.124800       112.2415 
 107   0.0000       4.124800       112.2415 
 108   0.0000       4.174738       113.6004 
 109   0.0000       6.585575       179.2026 
 110   0.0000       6.585575       179.2026 
 111   0.0000       6.587042       179.2425 
 112   0.0000       6.587042       179.2425 
 113   0.0000       6.595956       179.4851 
 114   0.0000       6.595956       179.4851 
 115   0.0000       6.612948       179.9475 
 116   0.0000       7.527155       204.8243 
 117   0.0000       8.002267       217.7528 
 118   0.0000       8.002267       217.7528 
 119   0.0000       8.044292       218.8963 
 120   0.0000       8.436325       229.5641 
 121   0.0000       8.436325       229.5641 
 122   0.0000       8.458885       230.1780 
 123   0.0000       8.458885       230.1780 
 124   0.0000       8.529124       232.0893 
 125   0.0000      13.072694       355.7261 

                    ********************************
                    * MULLIKEN POPULATION ANALYSIS *
                    ********************************

--------------------------------------------
MULLIKEN ATOMIC CHARGES AND SPIN POPULATIONS
--------------------------------------------
   0 B :    0.001213   -1.000494
   1 H :   -0.001213    1.000494
Sum of atomic charges         :   -0.0000000
Sum of atomic spin populations:    0.0000000

-----------------------------------------------------
MULLIKEN REDUCED ORBITAL CHARGES AND SPIN POPULATIONS
-----------------------------------------------------
CHARGE
  0 B s       :     3.994406  s :     3.994406
      pz      :     0.000000  p :     0.999656
      px      :     0.999656
      py      :     0.000000
      dz2     :     0.001200  d :     0.004799
      dxz     :     0.000000
      dyz     :     0.000000
      dx2y2   :     0.003599
      dxy     :     0.000000
      f0      :     0.000000  f :    -0.000074
      f+1     :    -0.000028
      f-1     :     0.000000
      f+2     :     0.000000
      f-2     :     0.000000
      f+3     :    -0.000046
      f-3     :     0.000000
      g0      :    -0.000000  g :    -0.000001
      g+1     :     0.000000
      g-1     :     0.000000
      g+2     :    -0.000000
      g-2     :     0.000000
      g+3     :     0.000000
      g-3     :     0.000000
      g+4     :    -0.000000
      g-4     :     0.000000
  1 H s       :     1.001305  s :     1.001305
      pz      :     0.000000  p :    -0.000147
      px      :    -0.000147
      py      :     0.000000
      dz2     :     0.000011  d :     0.000043
      dxz     :     0.000000
      dyz     :     0.000000
      dx2y2   :     0.000032
      dxy     :     0.000000
      f0      :     0.000000  f :     0.000012
      f+1     :     0.000005
      f-1     :     0.000000
      f+2     :     0.000000
      f-2     :     0.000000
      f+3     :     0.000008
      f-3     :     0.000000

SPIN
  0 B s       :     0.000852  s :     0.000852
      pz      :    -0.000000  p :    -0.999863
      px      :    -0.999863
      py      :    -0.000000
      dz2     :    -0.000341  d :    -0.001366
      dxz     :    -0.000000
      dyz     :    -0.000000
      dx2y2   :    -0.001024
      dxy     :    -0.000000
      f0      :     0.000000  f :    -0.000116
      f+1     :    -0.000044
      f-1     :    -0.000000
      f+2     :    -0.000000
      f-2     :    -0.000000
      f+3     :    -0.000073
      f-3     :    -0.000000
      g0      :    -0.000000  g :    -0.000001
      g+1     :     0.000000
      g-1     :     0.000000
      g+2     :    -0.000000
      g-2     :    -0.000000
      g+3     :     0.000000
      g-3     :     0.000000
      g+4     :    -0.000000
      g-4     :    -0.000000
  1 H s       :     1.000186  s :     1.000186
      pz      :    -0.000000  p :     0.000349
      px      :     0.000349
      py      :    -0.000000
      dz2     :    -0.000008  d :    -0.000030
      dxz     :    -0.000000
      dyz     :     0.000000
      dx2y2   :    -0.000023
      dxy     :     0.000000
      f0      :     0.000000  f :    -0.000010
      f+1     :    -0.000004
      f-1     :     0.000000
      f+2     :     0.000000
      f-2     :     0.000000
      f+3     :    -0.000006
      f-3     :     0.000000


                     *******************************
                     * LOEWDIN POPULATION ANALYSIS *
                     *******************************

-------------------------------------------
LOEWDIN ATOMIC CHARGES AND SPIN POPULATIONS
-------------------------------------------
   0 B :   -0.012932   -0.957130
   1 H :    0.012932    0.957130

----------------------------------------------------
LOEWDIN REDUCED ORBITAL CHARGES AND SPIN POPULATIONS
----------------------------------------------------
CHARGE
  0 B s       :     3.988791  s :     3.988791
      pz      :     0.000000  p :     1.001175
      px      :     1.001175
      py      :     0.000000
      dz2     :     0.005064  d :     0.020257
      dxz     :     0.000000
      dyz     :     0.000000
      dx2y2   :     0.015193
      dxy     :     0.000000
      f0      :     0.000000  f :     0.002671
      f+1     :     0.001002
      f-1     :     0.000000
      f+2     :     0.000000
      f-2     :     0.000000
      f+3     :     0.001669
      f-3     :     0.000000
      g0      :     0.000005  g :     0.000039
      g+1     :     0.000000
      g-1     :     0.000000
      g+2     :     0.000012
      g-2     :     0.000000
      g+3     :     0.000000
      g-3     :     0.000000
      g+4     :     0.000021
      g-4     :     0.000000
  1 H s       :     0.976062  s :     0.976062
      pz      :     0.000000  p :     0.009276
      px      :     0.009276
      py      :     0.000000
      dz2     :     0.000406  d :     0.001624
      dxz     :     0.000000
      dyz     :     0.000000
      dx2y2   :     0.001218
      dxy     :     0.000000
      f0      :     0.000000  f :     0.000107
      f+1     :     0.000040
      f-1     :     0.000000
      f+2     :     0.000000
      f-2     :     0.000000
      f+3     :     0.000067
      f-3     :     0.000000

SPIN
  0 B s       :     0.002643  s :     0.002643
      pz      :    -0.000000  p :    -0.976638
      px      :    -0.976638
      py      :    -0.000000
      dz2     :     0.003548  d :     0.014193
      dxz     :    -0.000000
      dyz     :    -0.000000
      dx2y2   :     0.010644
      dxy     :     0.000000
      f0      :     0.000000  f :     0.002638
      f+1     :     0.000989
      f-1     :    -0.000000
      f+2     :    -0.000000
      f-2     :    -0.000000
      f+3     :     0.001649
      f-3     :     0.000000
      g0      :     0.000005  g :     0.000035
      g+1     :     0.000000
      g-1     :    -0.000000
      g+2     :     0.000011
      g-2     :     0.000000
      g+3     :     0.000000
      g-3     :    -0.000000
      g+4     :     0.000019
      g-4     :    -0.000000
  1 H s       :     0.964218  s :     0.964218
      pz      :    -0.000000  p :    -0.005781
      px      :    -0.005781
      py      :    -0.000000
      dz2     :    -0.000306  d :    -0.001224
      dxz     :    -0.000000
      dyz     :     0.000000
      dx2y2   :    -0.000918
      dxy     :     0.000000
      f0      :    -0.000000  f :    -0.000083
      f+1     :    -0.000031
      f-1     :     0.000000
      f+2     :    -0.000000
      f-2     :     0.000000
      f+3     :    -0.000052
      f-3     :     0.000000


                      *****************************
                      * MAYER POPULATION ANALYSIS *
                      *****************************

  NA   - Mulliken gross atomic population
  ZA   - Total nuclear charge
  QA   - Mulliken gross atomic charge
  VA   - Mayer's total valence
  BVA  - Mayer's bonded valence
  FA   - Mayer's free valence

  ATOM       NA         ZA         QA         VA         BVA        FA
  0 B      4.9988     5.0000     0.0012     1.0217    -0.0003     1.0221
  1 H      1.0012     1.0000    -0.0012     0.9999    -0.0003     1.0003

  Mayer bond orders larger than 0.100000


-------
TIMINGS
-------

Total SCF time: 0 days 0 hours 0 min 12 sec 

Total time                  ....      12.154 sec
Sum of individual times     ....      11.941 sec  ( 98.2%)

Fock matrix formation       ....       7.286 sec  ( 59.9%)
Diagonalization             ....       0.251 sec  (  2.1%)
Density matrix formation    ....       0.010 sec  (  0.1%)
Population analysis         ....       0.007 sec  (  0.1%)
Initial guess               ....       0.008 sec  (  0.1%)
Orbital Transformation      ....       0.000 sec  (  0.0%)
Orbital Orthonormalization  ....       0.000 sec  (  0.0%)
DIIS solution               ....       0.171 sec  (  1.4%)
SCF Stability Analysis      ....       4.200 sec  ( 34.6%)

Maximum memory used throughout the entire SCF-calculation: 228.6 MB

-------------------------   --------------------
FINAL SINGLE POINT ENERGY       -25.033012507640
-------------------------   --------------------


                            ***************************************
                            *     ORCA property calculations      *
                            ***************************************

                                    ---------------------
                                    Active property flags
                                    ---------------------
   (+) Dipole Moment


------------------------------------------------------------------------------
                       ORCA ELECTRIC PROPERTIES CALCULATION
------------------------------------------------------------------------------

Dipole Moment Calculation                       ... on
Quadrupole Moment Calculation                   ... off
Polarizability Calculation                      ... off
GBWName                                         ... /scratch/BH-4.0-UHF-O_493/BH-4.0-UHF-O.gbw
Electron density file                           ... /scratch/BH-4.0-UHF-O_493/BH-4.0-UHF-O.scfp
The origin for moment calculation is the CENTER OF MASS  = ( 0.644726,  0.000000  0.000000)

-------------
DIPOLE MOMENT
-------------
                                X             Y             Z
Electronic contribution:     -3.70766       0.00000       0.00000
Nuclear contribution   :      3.69055       0.00000       0.00000
                        -----------------------------------------
Total Dipole Moment    :     -0.01712       0.00000       0.00000
                        -----------------------------------------
Magnitude (a.u.)       :      0.01712
Magnitude (Debye)      :      0.04350



--------------------
Rotational spectrum 
--------------------
 
Rotational constants in cm-1:     0.000000     1.142706     1.142706 
Rotational constants in MHz :     0.000000 34257.477478 34257.477478 

 Dipole components along the rotational axes: 
x,y,z [a.u.] :    -0.017116     0.000000     0.000000 
x,y,z [Debye]:    -0.043505     0.000000     0.000000 

 
--------------------------------------------------------------------------
WARNING: There was an error initializing an OpenFabrics device.

  Local host:   cnode08
  Local device: mlx5_0
--------------------------------------------------------------------------
[cnode08:319998] 7 more processes have sent help message help-mpi-btl-openib.txt / error in device init
[cnode08:319998] Set MCA parameter "orte_base_help_aggregate" to 0 to see all help / error messages

Timings for individual modules:

Sum of individual times         ...       13.015 sec (=   0.217 min)
GTO integral calculation        ...        0.496 sec (=   0.008 min)   3.8 %
SCF iterations                  ...       12.519 sec (=   0.209 min)  96.2 %
                             ****ORCA TERMINATED NORMALLY****
TOTAL RUN TIME: 0 days 0 hours 0 minutes 13 seconds 512 msec

Sender: Unischeduler System <lcz@mgt01>
Subject: Job 134288: <#!/bin/bash
#BSUB -J intel
#BSUB -o BH-4.0-UHF-O.out
#BSUB -n 8
#BSUB -q cqueue
export LD_LIBRARY_PATH=/apps/software/openmpi-4.1.1/lib:/apps/software/orca_5_0_0:$LD_LIBRARY_PATH
export PATH=/apps/software/openmpi-4.1.1/bin:/apps/software/orca_5_0_0:$PATH
mkdir /scratch/BH-4.0-UHF-O_493
scp $USER@mgt01:/apps/users/lcz/exe13/UCCSD/BH-4.0-UHF-O.inp /scratch/BH-4.0-UHF-O_493
/apps/software/orca_5_0_0/orca /scratch/BH-4.0-UHF-O_493/BH-4.0-UHF-O.inp >& BH-4.0-UHF-O.out
scp /scratch/BH-4.0-UHF-O_493/*.gbw $USER@mgt01:/apps/users/lcz/exe13/UCCSD
scp /scratch/BH-4.0-UHF-O_493/*.xyz $USER@mgt01:/apps/users/lcz/exe13/UCCSD
scp /scratch/BH-4.0-UHF-O_493/*.trj $USER@mgt01:/apps/users/lcz/exe13/UCCSD> Exited

Job <#!/bin/bash
#BSUB -J intel
#BSUB -o BH-4.0-UHF-O.out
#BSUB -n 8
#BSUB -q cqueue
export LD_LIBRARY_PATH=/apps/software/openmpi-4.1.1/lib:/apps/software/orca_5_0_0:$LD_LIBRARY_PATH
export PATH=/apps/software/openmpi-4.1.1/bin:/apps/software/orca_5_0_0:$PATH
mkdir /scratch/BH-4.0-UHF-O_493
scp $USER@mgt01:/apps/users/lcz/exe13/UCCSD/BH-4.0-UHF-O.inp /scratch/BH-4.0-UHF-O_493
/apps/software/orca_5_0_0/orca /scratch/BH-4.0-UHF-O_493/BH-4.0-UHF-O.inp >& BH-4.0-UHF-O.out
scp /scratch/BH-4.0-UHF-O_493/*.gbw $USER@mgt01:/apps/users/lcz/exe13/UCCSD
scp /scratch/BH-4.0-UHF-O_493/*.xyz $USER@mgt01:/apps/users/lcz/exe13/UCCSD
scp /scratch/BH-4.0-UHF-O_493/*.trj $USER@mgt01:/apps/users/lcz/exe13/UCCSD> was submitted from host <mgt01> by user <lcz>.
Job was executed on host(s) <8*cnode08>, in queue <cqueue>, as user <lcz>.
</apps/users/lcz> was used as the home directory.
</apps/users/lcz/exe13/UCCSD> was used as the working directory.
Started at 2022-05-22 20:35:40
Results reported at 2022-05-22 20:35:55

Your job looked like:

------------------------------------------------------------
# User input
#!/bin/bash
#BSUB -J intel
#BSUB -o BH-4.0-UHF-O.out
#BSUB -n 8
#BSUB -q cqueue
export LD_LIBRARY_PATH=/apps/software/openmpi-4.1.1/lib:/apps/software/orca_5_0_0:$LD_LIBRARY_PATH
export PATH=/apps/software/openmpi-4.1.1/bin:/apps/software/orca_5_0_0:$PATH
mkdir /scratch/BH-4.0-UHF-O_493
scp $USER@mgt01:/apps/users/lcz/exe13/UCCSD/BH-4.0-UHF-O.inp /scratch/BH-4.0-UHF-O_493
/apps/software/orca_5_0_0/orca /scratch/BH-4.0-UHF-O_493/BH-4.0-UHF-O.inp >& BH-4.0-UHF-O.out
scp /scratch/BH-4.0-UHF-O_493/*.gbw $USER@mgt01:/apps/users/lcz/exe13/UCCSD
scp /scratch/BH-4.0-UHF-O_493/*.xyz $USER@mgt01:/apps/users/lcz/exe13/UCCSD
scp /scratch/BH-4.0-UHF-O_493/*.trj $USER@mgt01:/apps/users/lcz/exe13/UCCSD
------------------------------------------------------------

Exited with exit code 1.

Resource usage summary:

    CPU time   :           85.83 sec.
    Max Memory :              1046 MB
    Max Processes  :              13


The output (if any) follows:

/scratch/BH-4.0-UHF-O_493/*.xyz: No such file or directory
/scratch/BH-4.0-UHF-O_493/*.trj: No such file or directory
