
                                        *****************
                                        * O   R   C   A *
                                        *****************

                                            #,                                       
                                            ###                                      
                                            ####                                     
                                            #####                                    
                                            ######                                   
                                           ########,                                 
                                     ,,################,,,,,                         
                               ,,#################################,,                 
                          ,,##########################################,,             
                       ,#########################################, ''#####,          
                    ,#############################################,,   '####,        
                  ,##################################################,,,,####,       
                ,###########''''           ''''###############################       
              ,#####''   ,,,,##########,,,,          '''####'''          '####       
            ,##' ,,,,###########################,,,                        '##       
           ' ,,###''''                  '''############,,,                           
         ,,##''                                '''############,,,,        ,,,,,,###''
      ,#''                                            '''#######################'''  
     '                                                          ''''####''''         
             ,#######,   #######,   ,#######,      ##                                
            ,#'     '#,  ##    ##  ,#'     '#,    #''#        ######   ,####,        
            ##       ##  ##   ,#'  ##            #'  '#       #        #'  '#        
            ##       ##  #######   ##           ,######,      #####,   #    #        
            '#,     ,#'  ##    ##  '#,     ,#' ,#      #,         ##   #,  ,#        
             '#######'   ##     ##  '#######'  #'      '#     #####' # '####'        



                  #######################################################
                  #                        -***-                        #
                  #          Department of theory and spectroscopy      #
                  #    Directorship and core code : Frank Neese         #
                  #        Max Planck Institute fuer Kohlenforschung    #
                  #                Kaiser Wilhelm Platz 1               #
                  #                 D-45470 Muelheim/Ruhr               #
                  #                      Germany                        #
                  #                                                     #
                  #                  All rights reserved                #
                  #                        -***-                        #
                  #######################################################


                         Program Version 5.0.0 -  RELEASE  -
                                (SVN: $Rev: 19529$)
                ($Date: 2021-06-28 11:36:33 +0200 (Mo, 28 Jun 2021) $)


 With contributions from (in alphabetic order):
   Daniel Aravena         : Magnetic Suceptibility
   Michael Atanasov       : Ab Initio Ligand Field Theory (pilot matlab implementation)
   Alexander A. Auer      : GIAO ZORA, VPT2 properties, NMR spectrum
   Ute Becker             : Parallelization
   Giovanni Bistoni       : ED, misc. LED, open-shell LED, HFLD
   Martin Brehm           : Molecular dynamics
   Dmytro Bykov           : SCF Hessian
   Vijay G. Chilkuri      : MRCI spin determinant printing, contributions to CSF-ICE
   Dipayan Datta          : RHF DLPNO-CCSD density
   Achintya Kumar Dutta   : EOM-CC, STEOM-CC
   Dmitry Ganyushin       : Spin-Orbit,Spin-Spin,Magnetic field MRCI
   Miquel Garcia          : C-PCM Hessian, Gaussian charge scheme
   Yang Guo               : DLPNO-NEVPT2, F12-NEVPT2, CIM, IAO-localization
   Andreas Hansen         : Spin unrestricted coupled pair/coupled cluster methods
   Benjamin Helmich-Paris : MC-RPA, TRAH-SCF, COSX integrals
   Lee Huntington         : MR-EOM, pCC
   Robert Izsak           : Overlap fitted RIJCOSX, COSX-SCS-MP3, EOM
   Marcus Kettner         : VPT2
   Christian Kollmar      : KDIIS, OOCD, Brueckner-CCSD(T), CCSD density, CASPT2, CASPT2-K
   Simone Kossmann        : Meta GGA functionals, TD-DFT gradient, OOMP2, MP2 Hessian
   Martin Krupicka        : Initial AUTO-CI
   Lucas Lang             : DCDCAS
   Marvin Lechner         : AUTO-CI (C++ implementation), FIC-MRCC
   Dagmar Lenk            : GEPOL surface, SMD
   Dimitrios Liakos       : Extrapolation schemes; Compound Job, initial MDCI parallelization
   Dimitrios Manganas     : Further ROCIS development; embedding schemes
   Dimitrios Pantazis     : SARC Basis sets
   Anastasios Papadopoulos: AUTO-CI, single reference methods and gradients
   Taras Petrenko         : DFT Hessian,TD-DFT gradient, ASA, ECA, R-Raman, ABS, FL, XAS/XES, NRVS
   Peter Pinski           : DLPNO-MP2, DLPNO-MP2 Gradient
   Christoph Reimann      : Effective Core Potentials
   Marius Retegan         : Local ZFS, SOC
   Christoph Riplinger    : Optimizer, TS searches, QM/MM, DLPNO-CCSD(T), (RO)-DLPNO pert. Triples
   Tobias Risthaus        : Range-separated hybrids, TD-DFT gradient, RPA, STAB
   Michael Roemelt        : Original ROCIS implementation
   Masaaki Saitow         : Open-shell DLPNO-CCSD energy and density
   Barbara Sandhoefer     : DKH picture change effects
   Avijit Sen             : IP-ROCIS
   Kantharuban Sivalingam : CASSCF convergence, NEVPT2, FIC-MRCI
   Bernardo de Souza      : ESD, SOC TD-DFT
   Georgi Stoychev        : AutoAux, RI-MP2 NMR
   Willem Van den Heuvel  : Paramagnetic NMR
   Boris Wezisla          : Elementary symmetry handling
   Frank Wennmohs         : Technical directorship


 We gratefully acknowledge several colleagues who have allowed us to
 interface, adapt or use parts of their codes:
   Stefan Grimme, W. Hujo, H. Kruse, P. Pracht,  : VdW corrections, initial TS optimization,
                  C. Bannwarth, S. Ehlert          DFT functionals, gCP, sTDA/sTD-DF
   Ed Valeev, F. Pavosevic, A. Kumar             : LibInt (2-el integral package), F12 methods
   Garnet Chan, S. Sharma, J. Yang, R. Olivares  : DMRG
   Ulf Ekstrom                                   : XCFun DFT Library
   Mihaly Kallay                                 : mrcc  (arbitrary order and MRCC methods)
   Jiri Pittner, Ondrej Demel                    : Mk-CCSD
   Frank Weinhold                                : gennbo (NPA and NBO analysis)
   Christopher J. Cramer and Donald G. Truhlar   : smd solvation model
   Lars Goerigk                                  : TD-DFT with DH, B97 family of functionals
   V. Asgeirsson, H. Jonsson                     : NEB implementation
   FAccTs GmbH                                   : IRC, NEB, NEB-TS, DLPNO-Multilevel, CI-OPT
                                                   MM, QMMM, 2- and 3-layer-ONIOM, Crystal-QMMM,
                                                   LR-CPCM, SF, NACMEs, symmetry and pop. for TD-DFT,
                                                   nearIR, NL-DFT gradient (VV10), updates on ESD,
                                                   ML-optimized integration grids
   S Lehtola, MJT Oliveira, MAL Marques          : LibXC Library
   Liviu Ungur et al                             : ANISO software


 Your calculation uses the libint2 library for the computation of 2-el integrals
 For citations please refer to: http://libint.valeyev.net

 Your ORCA version has been built with support for libXC version: 5.1.0
 For citations please refer to: https://tddft.org/programs/libxc/

 This ORCA versions uses:
   CBLAS   interface :  Fast vector & matrix operations
   LAPACKE interface :  Fast linear algebra routines
   SCALAPACK package :  Parallel linear algebra routines
   Shared memory     :  Shared parallel matrices
   BLAS/LAPACK       :  OpenBLAS 0.3.15  USE64BITINT DYNAMIC_ARCH NO_AFFINITY SkylakeX SINGLE_THREADED
        Core in use  :  SkylakeX
   Copyright (c) 2011-2014, The OpenBLAS Project


================================================================================

----- Orbital basis set information -----
Your calculation utilizes the basis: aug-cc-pVQZ 
    H, B-Ne : Obtained from the ccRepo (grant-hill.group.shef.ac.uk/ccrepo) Feb. 2017
              R. A. Kendall, T. H. Dunning, Jr., R. J. Harrison, J. Chem. Phys. 96, 6796 (1992)
         He : Obtained from the ccRepo (grant-hill.group.shef.ac.uk/ccrepo) Feb. 2017
              D. E. Woon, T. H. Dunning, Jr., J. Chem. Phys. 100, 2975 (1994)
  Li-Be, Na : Obtained from the ccRepo (grant-hill.group.shef.ac.uk/ccrepo) Feb. 2017
              B. P. Prascher, D. E. Woon, K. A. Peterson, T. H. Dunning, Jr., A. K. Wilson, Theor. Chem. Acc. 128, 69 (2011)
         Mg : Obtained from the Peterson Research Group Website (tyr0.chem.wsu.edu/~kipeters) Feb. 2017
              B. P. Prascher, D. E. Woon, K. A. Peterson, T. H. Dunning, Jr., A. K. Wilson, Theor. Chem. Acc. 128, 69 (2011)
      Al-Ar : Obtained from the ccRepo (grant-hill.group.shef.ac.uk/ccrepo) Feb. 2017
              D. E. Woon, T. H. Dunning, Jr., J. Chem. Phys. 98, 1358 (1993)
      Sc-Zn : Obtained from the ccRepo (grant-hill.group.shef.ac.uk/ccrepo) Feb. 2017
              N. B. Balabanov, K. A. Peterson, J. Chem. Phys. 123, 064107 (2005)
              N. B. Balabanov, K. A. Peterson, J. Chem. Phys. 125, 074110 (2006)
      Ga-Kr : Obtained from the ccRepo (grant-hill.group.shef.ac.uk/ccrepo) Feb. 2017
              A. K. Wilson, D. E. Woon, K. A. Peterson, T. H. Dunning, Jr., J. Chem. Phys. 110, 7667 (1999)

================================================================================
                                        WARNINGS
                       Please study these warnings very carefully!
================================================================================


WARNING: Post HF methods need fully converged wavefunctions
  ===> : Setting SCFConvForced true
         You can overwrite this default with %scf ConvForced false 


WARNING: MDCI localization with Augmented Hessian Foster-Boys
  ===> : Switching off randomization!

INFO   : the flag for use of the SHARK integral package has been found!

================================================================================
                                       INPUT FILE
================================================================================
NAME = /scratch/BH-5.2-UCCSD-O_935/BH-5.2-UCCSD-O.inp
|  1> ! UHF CCSD aug-cc-pVQZ VeryTightSCF MOread
|  2> 
|  3> %moinp "BH-5.2-UHF-O.gbw"
|  4> 
|  5> *xyz 0 1
|  6>  B	0.0	0.0	0.0
|  7>  H	5.2	0.0	0.0
|  8> **                         ****END OF INPUT****
================================================================================

                       ****************************
                       * Single Point Calculation *
                       ****************************

---------------------------------
CARTESIAN COORDINATES (ANGSTROEM)
---------------------------------
  B      0.000000    0.000000    0.000000
  H      5.200000    0.000000    0.000000

----------------------------
CARTESIAN COORDINATES (A.U.)
----------------------------
  NO LB      ZA    FRAG     MASS         X           Y           Z
   0 B     5.0000    0    10.810    0.000000    0.000000    0.000000
   1 H     1.0000    0     1.008    9.826576    0.000000    0.000000

--------------------------------
INTERNAL COORDINATES (ANGSTROEM)
--------------------------------
 B      0   0   0     0.000000000000     0.00000000     0.00000000
 H      1   0   0     5.200000000000     0.00000000     0.00000000

---------------------------
INTERNAL COORDINATES (A.U.)
---------------------------
 B      0   0   0     0.000000000000     0.00000000     0.00000000
 H      1   0   0     9.826575896391     0.00000000     0.00000000

---------------------
BASIS SET INFORMATION
---------------------
There are 2 groups of distinct atoms

 Group   1 Type B   : 22s7p4d3f2g contracted to 6s5p4d3f2g pattern {991111/31111/1111/111/11}
 Group   2 Type H   : 7s4p3d2f contracted to 5s4p3d2f pattern {31111/1111/111/11}

Atom   0B    basis set group =>   1
Atom   1H    basis set group =>   2
------------------------------------------------------------------------------
                           ORCA GTO INTEGRAL CALCULATION
------------------------------------------------------------------------------
------------------------------------------------------------------------------
                   ___                                                        
                  /   \      - P O W E R E D   B Y -                         
                 /     \                                                     
                 |  |  |   _    _      __       _____    __    __             
                 |  |  |  | |  | |    /  \     |  _  \  |  |  /  |          
                  \  \/   | |  | |   /    \    | | | |  |  | /  /          
                 / \  \   | |__| |  /  /\  \   | |_| |  |  |/  /          
                |  |  |   |  __  | /  /__\  \  |    /   |      \           
                |  |  |   | |  | | |   __   |  |    \   |  |\   \          
                \     /   | |  | | |  |  |  |  | |\  \  |  | \   \       
                 \___/    |_|  |_| |__|  |__|  |_| \__\ |__|  \__/        
                                                                              
                      - O R C A' S   B I G   F R I E N D -                    
                                      &                                       
                       - I N T E G R A L  F E E D E R -                       
                                                                              
 v1 FN, 2020, v2 2021                                                         
------------------------------------------------------------------------------


Reading SHARK input file /scratch/BH-5.2-UCCSD-O_935/BH-5.2-UCCSD-O.SHARKINP.tmp ... ok
----------------------
SHARK INTEGRAL PACKAGE
----------------------

Number of atoms                             ...      2
Number of basis functions                   ...    126
Number of shells                            ...     34
Maximum angular momentum                    ...      4
Integral batch strategy                     ... SHARK/LIBINT Hybrid
RI-J (if used) integral strategy            ... SPLIT-RIJ (Revised 2003 algorithm where possible)
Printlevel                                  ...      1
Contraction scheme used                     ... SEGMENTED contraction
Coulomb Range Separation                    ... NOT USED
Exchange Range Separation                   ... NOT USED
Finite Nucleus Model                        ... NOT USED
Auxiliary Coulomb fitting basis             ... NOT available
Auxiliary J/K fitting basis                 ... NOT available
Auxiliary Correlation fitting basis         ... NOT available
Auxiliary 'external' fitting basis          ... NOT available
Integral threshold                          ...     1.000000e-12
Primitive cut-off                           ...     1.000000e-14
Primitive pair pre-selection threshold      ...     1.000000e-14

Calculating pre-screening integrals         ... done (  0.1 sec) Dimension = 34
Organizing shell pair data                  ... done (  0.0 sec)
Shell pair information
Total number of shell pairs                 ...       595
Shell pairs after pre-screening             ...       551
Total number of primitive shell pairs       ...      1563
Primitive shell pairs kept                  ...      1325
          la=0 lb=0:     61 shell pairs
          la=1 lb=0:     91 shell pairs
          la=1 lb=1:     42 shell pairs
          la=2 lb=0:     70 shell pairs
          la=2 lb=1:     58 shell pairs
          la=2 lb=2:     26 shell pairs
          la=3 lb=0:     51 shell pairs
          la=3 lb=1:     42 shell pairs
          la=3 lb=2:     33 shell pairs
          la=3 lb=3:     14 shell pairs
          la=4 lb=0:     21 shell pairs
          la=4 lb=1:     17 shell pairs
          la=4 lb=2:     13 shell pairs
          la=4 lb=3:      9 shell pairs
          la=4 lb=4:      3 shell pairs

Calculating one electron integrals          ... done (  0.0 sec)
Calculating Nuclear repulsion               ... done (  0.0 sec) ENN=      0.508824238750 Eh

SHARK setup successfully completed in   0.1 seconds

Maximum memory used throughout the entire GTOINT-calculation: 30.6 MB
-------------------------------------------------------------------------------
                                 ORCA SCF
-------------------------------------------------------------------------------

------------
SCF SETTINGS
------------
Hamiltonian:
 Ab initio Hamiltonian  Method          .... Hartree-Fock(GTOs)


General Settings:
 Integral files         IntName         .... /scratch/BH-5.2-UCCSD-O_935/BH-5.2-UCCSD-O
 Hartree-Fock type      HFTyp           .... UHF
 Total Charge           Charge          ....    0
 Multiplicity           Mult            ....    1
 Number of Electrons    NEL             ....    6
 Basis Dimension        Dim             ....  126
 Nuclear Repulsion      ENuc            ....      0.5088242388 Eh

Convergence Acceleration:
 DIIS                   CNVDIIS         .... on
   Start iteration      DIISMaxIt       ....    12
   Startup error        DIISStart       ....  0.200000
   # of expansion vecs  DIISMaxEq       ....     5
   Bias factor          DIISBfac        ....   1.050
   Max. coefficient     DIISMaxC        ....  10.000
 Trust-Rad. Augm. Hess. CNVTRAH         .... auto
   Auto Start mean grad. ratio tolernc. ....  1.125000
   Auto Start start iteration           ....     1
   Auto Start num. interpolation iter.  ....    10
   Max. Number of Micro iterations      ....    16
   Max. Number of Macro iterations      .... Maxiter - #DIIS iter
   Number of Davidson start vectors     ....     2
   Converg. threshold I  (grad. norm)   ....   2.000e-06
   Converg. threshold II (energy diff.) ....   1.000e-09
   Grad. Scal. Fac. for Micro threshold ....   0.100
   Minimum threshold for Micro iter.    ....   0.010
   NR start threshold (gradient norm)   ....   0.001
   Initial trust radius                 ....   0.400
   Minimum AH scaling param. (alpha)    ....   1.000
   Maximum AH scaling param. (alpha)    .... 1000.000
   Orbital update algorithm             .... Taylor
   White noise on init. David. guess    .... on
   Maximum white noise                  ....   0.010
   Quad. conv. algorithm                .... NR
 SOSCF                  CNVSOSCF        .... off
 Level Shifting         CNVShift        .... on
   Level shift para.    LevelShift      ....    0.2500
   Turn off err/grad.   ShiftErr        ....    0.0010
 Zerner damping         CNVZerner       .... off
 Static damping         CNVDamp         .... on
   Fraction old density DampFac         ....    0.7000
   Max. Damping (<1)    DampMax         ....    0.9800
   Min. Damping (>=0)   DampMin         ....    0.0000
   Turn off err/grad.   DampErr         ....    0.1000
 Fernandez-Rico         CNVRico         .... off

SCF Procedure:
 Maximum # iterations   MaxIter         ....   125
 SCF integral mode      SCFMode         .... Direct
   Integral package                     .... SHARK and LIBINT hybrid scheme
 Reset frequency        DirectResetFreq ....    20
 Integral Threshold     Thresh          ....  1.000e-12 Eh
 Primitive CutOff       TCut            ....  1.000e-14 Eh

Convergence Tolerance:
 Convergence Check Mode ConvCheckMode   .... Total+1el-Energy
 Convergence forced     ConvForced      .... 1
 Energy Change          TolE            ....  1.000e-09 Eh
 1-El. energy change                    ....  1.000e-06 Eh
 DIIS Error             TolErr          ....  1.000e-08


Diagonalization of the overlap matrix:
Smallest eigenvalue                        ... 4.888e-03
Time for diagonalization                   ...    0.001 sec
Threshold for overlap eigenvalues          ... 1.000e-08
Number of eigenvalues below threshold      ... 0
Time for construction of square roots      ...    0.000 sec
Total time needed                          ...    0.002 sec

---------------------
INITIAL GUESS: MOREAD
---------------------
Guess MOs are being read from file: BH-5.2-UHF-O.gbw
Input Geometry matches current geometry (good)
Input basis set matches current basis set (good)
MOs were renormalized
MOs were reorthogonalized (Cholesky)
                      ------------------
                      INITIAL GUESS DONE (   0.0 sec)
                      ------------------
--------------
SCF ITERATIONS
--------------
ITER       Energy         Delta-E        Max-DP      RMS-DP      [F,P]     Damp
               ***  Starting incremental Fock matrix formation  ***
  0    -25.0329375454   0.000000000000 0.00000000  0.00000000  0.0000000 0.7000
                 **** Energy Check signals convergence ****

               *****************************************************
               *                     SUCCESS                       *
               *           SCF CONVERGED AFTER   1 CYCLES          *
               *****************************************************


----------------
TOTAL SCF ENERGY
----------------

Total Energy       :          -25.03293755 Eh            -681.18086 eV

Components:
Nuclear Repulsion  :            0.50882424 Eh              13.84581 eV
Electronic Energy  :          -25.54176178 Eh            -695.02667 eV
One Electron Energy:          -33.88794195 Eh            -922.13778 eV
Two Electron Energy:            8.34618016 Eh             227.11111 eV

Virial components:
Potential Energy   :          -50.06528152 Eh           -1362.34557 eV
Kinetic Energy     :           25.03234397 Eh             681.16471 eV
Virial Ratio       :            2.00002371


---------------
SCF CONVERGENCE
---------------

  Last Energy change         ...    1.5632e-13  Tolerance :   1.0000e-09
  Last MAX-Density change    ...    8.9843e-10  Tolerance :   1.0000e-08
  Last RMS-Density change    ...    1.2154e-11  Tolerance :   1.0000e-09
  Last DIIS Error            ...    2.9299e-09  Tolerance :   1.0000e-08

             **** THE GBW FILE WAS UPDATED (/scratch/BH-5.2-UCCSD-O_935/BH-5.2-UCCSD-O.gbw) ****
             **** DENSITY /scratch/BH-5.2-UCCSD-O_935/BH-5.2-UCCSD-O.scfp WAS UPDATED ****
             **** ENERGY FILE WAS UPDATED (/scratch/BH-5.2-UCCSD-O_935/BH-5.2-UCCSD-O.en.tmp) ****
----------------------
UHF SPIN CONTAMINATION
----------------------

Expectation value of <S**2>     :     1.011158
Ideal value S*(S+1) for S=0.0   :     0.000000
Deviation                       :     1.011158

             **** THE GBW FILE WAS UPDATED (/scratch/BH-5.2-UCCSD-O_935/BH-5.2-UCCSD-O.gbw) ****
             **** DENSITY /scratch/BH-5.2-UCCSD-O_935/BH-5.2-UCCSD-O.scfp WAS UPDATED ****
----------------
ORBITAL ENERGIES
----------------
                 SPIN UP ORBITALS
  NO   OCC          E(Eh)            E(eV) 
   0   1.0000      -7.701502      -209.5685 
   1   1.0000      -0.545330       -14.8392 
   2   1.0000      -0.318796        -8.6749 
   3   0.0000       0.017499         0.4762 
   4   0.0000       0.023641         0.6433 
   5   0.0000       0.023641         0.6433 
   6   0.0000       0.051493         1.4012 
   7   0.0000       0.070664         1.9229 
   8   0.0000       0.077293         2.1032 
   9   0.0000       0.077293         2.1032 
  10   0.0000       0.110976         3.0198 
  11   0.0000       0.142779         3.8852 
  12   0.0000       0.142779         3.8852 
  13   0.0000       0.145651         3.9634 
  14   0.0000       0.145651         3.9634 
  15   0.0000       0.159554         4.3417 
  16   0.0000       0.206088         5.6079 
  17   0.0000       0.206088         5.6079 
  18   0.0000       0.245558         6.6820 
  19   0.0000       0.291252         7.9254 
  20   0.0000       0.312136         8.4937 
  21   0.0000       0.312136         8.4937 
  22   0.0000       0.344715         9.3802 
  23   0.0000       0.451992        12.2993 
  24   0.0000       0.461864        12.5680 
  25   0.0000       0.461864        12.5680 
  26   0.0000       0.467004        12.7078 
  27   0.0000       0.467004        12.7078 
  28   0.0000       0.469389        12.7727 
  29   0.0000       0.469389        12.7727 
  30   0.0000       0.491463        13.3734 
  31   0.0000       0.493769        13.4361 
  32   0.0000       0.493769        13.4361 
  33   0.0000       0.500484        13.6189 
  34   0.0000       0.500484        13.6189 
  35   0.0000       0.534076        14.5329 
  36   0.0000       0.629351        17.1255 
  37   0.0000       0.629351        17.1255 
  38   0.0000       0.642227        17.4759 
  39   0.0000       0.642227        17.4759 
  40   0.0000       0.673229        18.3195 
  41   0.0000       0.819438        22.2980 
  42   0.0000       0.819438        22.2980 
  43   0.0000       0.875570        23.8255 
  44   0.0000       1.043337        28.3906 
  45   0.0000       1.050887        28.5961 
  46   0.0000       1.050887        28.5961 
  47   0.0000       1.369999        37.2796 
  48   0.0000       1.369999        37.2796 
  49   0.0000       1.379276        37.5320 
  50   0.0000       1.379276        37.5320 
  51   0.0000       1.385915        37.7127 
  52   0.0000       1.385915        37.7127 
  53   0.0000       1.390091        37.8263 
  54   0.0000       1.390091        37.8263 
  55   0.0000       1.390618        37.8407 
  56   0.0000       1.393032        37.9063 
  57   0.0000       1.406432        38.2709 
  58   0.0000       1.406432        38.2709 
  59   0.0000       1.411052        38.3967 
  60   0.0000       1.411052        38.3967 
  61   0.0000       1.424261        38.7561 
  62   0.0000       1.439115        39.1603 
  63   0.0000       1.439115        39.1603 
  64   0.0000       1.447393        39.3856 
  65   0.0000       1.447393        39.3856 
  66   0.0000       1.453848        39.5612 
  67   0.0000       1.453848        39.5612 
  68   0.0000       1.479391        40.2563 
  69   0.0000       1.573686        42.8222 
  70   0.0000       1.573686        42.8222 
  71   0.0000       1.574128        42.8342 
  72   0.0000       1.574128        42.8342 
  73   0.0000       1.577093        42.9149 
  74   0.0000       1.577093        42.9149 
  75   0.0000       1.585003        43.1301 
  76   0.0000       1.710470        46.5443 
  77   0.0000       2.489944        67.7548 
  78   0.0000       2.489944        67.7548 
  79   0.0000       2.494755        67.8857 
  80   0.0000       2.494755        67.8857 
  81   0.0000       2.508852        68.2693 
  82   0.0000       2.628290        71.5194 
  83   0.0000       2.628290        71.5194 
  84   0.0000       2.677619        72.8617 
  85   0.0000       3.737154       101.6931 
  86   0.0000       3.737154       101.6931 
  87   0.0000       3.746427       101.9455 
  88   0.0000       3.919644       106.6589 
  89   0.0000       3.919644       106.6589 
  90   0.0000       3.934769       107.0705 
  91   0.0000       3.934769       107.0705 
  92   0.0000       3.945577       107.3646 
  93   0.0000       3.945577       107.3646 
  94   0.0000       3.952226       107.5455 
  95   0.0000       3.952226       107.5455 
  96   0.0000       3.955655       107.6389 
  97   0.0000       3.956005       107.6484 
  98   0.0000       3.956005       107.6484 
  99   0.0000       3.965800       107.9149 
 100   0.0000       3.965800       107.9149 
 101   0.0000       3.978390       108.2575 
 102   0.0000       4.086059       111.1873 
 103   0.0000       4.086059       111.1873 
 104   0.0000       4.099954       111.5654 
 105   0.0000       4.099954       111.5654 
 106   0.0000       4.109694       111.8305 
 107   0.0000       4.109694       111.8305 
 108   0.0000       4.126965       112.3004 
 109   0.0000       6.582476       179.1183 
 110   0.0000       6.582476       179.1183 
 111   0.0000       6.582587       179.1213 
 112   0.0000       6.582587       179.1213 
 113   0.0000       6.583117       179.1357 
 114   0.0000       6.583117       179.1357 
 115   0.0000       6.584331       179.1688 
 116   0.0000       7.480496       203.5546 
 117   0.0000       7.990576       217.4346 
 118   0.0000       7.990576       217.4346 
 119   0.0000       8.025331       218.3804 
 120   0.0000       8.431566       229.4346 
 121   0.0000       8.431566       229.4346 
 122   0.0000       8.434379       229.5111 
 123   0.0000       8.434379       229.5111 
 124   0.0000       8.446967       229.8536 
 125   0.0000      13.041091       354.8661 

                 SPIN DOWN ORBITALS
  NO   OCC          E(Eh)            E(eV) 
   0   1.0000      -7.686357      -209.1564 
   1   1.0000      -0.497313       -13.5326 
   2   1.0000      -0.446282       -12.1440 
   3   0.0000       0.027391         0.7454 
   4   0.0000       0.027391         0.7454 
   5   0.0000       0.043337         1.1793 
   6   0.0000       0.050805         1.3825 
   7   0.0000       0.073433         1.9982 
   8   0.0000       0.084268         2.2930 
   9   0.0000       0.084268         2.2930 
  10   0.0000       0.118452         3.2233 
  11   0.0000       0.143203         3.8967 
  12   0.0000       0.143203         3.8967 
  13   0.0000       0.145727         3.9654 
  14   0.0000       0.145727         3.9654 
  15   0.0000       0.156301         4.2532 
  16   0.0000       0.190703         5.1893 
  17   0.0000       0.190703         5.1893 
  18   0.0000       0.245269         6.6741 
  19   0.0000       0.320317         8.7163 
  20   0.0000       0.320317         8.7163 
  21   0.0000       0.347342         9.4517 
  22   0.0000       0.359499         9.7825 
  23   0.0000       0.379190        10.3183 
  24   0.0000       0.461789        12.5659 
  25   0.0000       0.461789        12.5659 
  26   0.0000       0.471035        12.8175 
  27   0.0000       0.471035        12.8175 
  28   0.0000       0.475151        12.9295 
  29   0.0000       0.475151        12.9295 
  30   0.0000       0.489097        13.3090 
  31   0.0000       0.501578        13.6486 
  32   0.0000       0.501578        13.6486 
  33   0.0000       0.523683        14.2501 
  34   0.0000       0.523683        14.2501 
  35   0.0000       0.558697        15.2029 
  36   0.0000       0.615970        16.7614 
  37   0.0000       0.615970        16.7614 
  38   0.0000       0.629877        17.1398 
  39   0.0000       0.629877        17.1398 
  40   0.0000       0.658774        17.9261 
  41   0.0000       0.753313        20.4987 
  42   0.0000       0.753313        20.4987 
  43   0.0000       0.822308        22.3761 
  44   0.0000       1.060269        28.8514 
  45   0.0000       1.060269        28.8514 
  46   0.0000       1.117557        30.4103 
  47   0.0000       1.369720        37.2720 
  48   0.0000       1.369720        37.2720 
  49   0.0000       1.384435        37.6724 
  50   0.0000       1.384435        37.6724 
  51   0.0000       1.394880        37.9566 
  52   0.0000       1.394880        37.9566 
  53   0.0000       1.401572        38.1387 
  54   0.0000       1.401572        38.1387 
  55   0.0000       1.404488        38.2181 
  56   0.0000       1.415938        38.5296 
  57   0.0000       1.415938        38.5296 
  58   0.0000       1.424836        38.7718 
  59   0.0000       1.439762        39.1779 
  60   0.0000       1.439762        39.1779 
  61   0.0000       1.455295        39.6006 
  62   0.0000       1.455295        39.6006 
  63   0.0000       1.463661        39.8282 
  64   0.0000       1.463661        39.8282 
  65   0.0000       1.473252        40.0892 
  66   0.0000       1.479607        40.2621 
  67   0.0000       1.479607        40.2621 
  68   0.0000       1.506227        40.9865 
  69   0.0000       1.561107        42.4799 
  70   0.0000       1.561107        42.4799 
  71   0.0000       1.561576        42.4926 
  72   0.0000       1.561576        42.4926 
  73   0.0000       1.565168        42.5904 
  74   0.0000       1.565168        42.5904 
  75   0.0000       1.568578        42.6832 
  76   0.0000       1.609848        43.8062 
  77   0.0000       2.450461        66.6804 
  78   0.0000       2.450461        66.6804 
  79   0.0000       2.455319        66.8126 
  80   0.0000       2.455319        66.8126 
  81   0.0000       2.468148        67.1617 
  82   0.0000       2.553528        69.4850 
  83   0.0000       2.553528        69.4850 
  84   0.0000       2.606500        70.9265 
  85   0.0000       3.744339       101.8886 
  86   0.0000       3.744339       101.8886 
  87   0.0000       3.796020       103.2950 
  88   0.0000       3.920336       106.6778 
  89   0.0000       3.920336       106.6778 
  90   0.0000       3.945667       107.3671 
  91   0.0000       3.945667       107.3671 
  92   0.0000       3.960495       107.7706 
  93   0.0000       3.960495       107.7706 
  94   0.0000       3.964946       107.8917 
  95   0.0000       3.964946       107.8917 
  96   0.0000       3.975041       108.1664 
  97   0.0000       3.975041       108.1664 
  98   0.0000       3.979641       108.2915 
  99   0.0000       4.002534       108.9145 
 100   0.0000       4.002534       108.9145 
 101   0.0000       4.026294       109.5610 
 102   0.0000       4.088743       111.2604 
 103   0.0000       4.088743       111.2604 
 104   0.0000       4.121403       112.1491 
 105   0.0000       4.121403       112.1491 
 106   0.0000       4.143034       112.7377 
 107   0.0000       4.143034       112.7377 
 108   0.0000       4.164705       113.3274 
 109   0.0000       6.553630       178.3333 
 110   0.0000       6.553630       178.3333 
 111   0.0000       6.553746       178.3365 
 112   0.0000       6.553746       178.3365 
 113   0.0000       6.554281       178.3511 
 114   0.0000       6.554281       178.3511 
 115   0.0000       6.555505       178.3844 
 116   0.0000       7.398554       201.3249 
 117   0.0000       7.932608       215.8572 
 118   0.0000       7.932608       215.8572 
 119   0.0000       7.967759       216.8137 
 120   0.0000       8.389327       228.2852 
 121   0.0000       8.389327       228.2852 
 122   0.0000       8.392163       228.3624 
 123   0.0000       8.392163       228.3624 
 124   0.0000       8.404817       228.7067 
 125   0.0000      13.052868       355.1866 

                    ********************************
                    * MULLIKEN POPULATION ANALYSIS *
                    ********************************

--------------------------------------------
MULLIKEN ATOMIC CHARGES AND SPIN POPULATIONS
--------------------------------------------
   0 B :    0.000154    1.000078
   1 H :   -0.000154   -1.000078
Sum of atomic charges         :   -0.0000000
Sum of atomic spin populations:    0.0000000

-----------------------------------------------------
MULLIKEN REDUCED ORBITAL CHARGES AND SPIN POPULATIONS
-----------------------------------------------------
CHARGE
  0 B s       :     3.994809  s :     3.994809
      pz      :     0.000000  p :     1.000022
      px      :     1.000022
      py      :     0.000000
      dz2     :     0.001252  d :     0.005009
      dxz     :     0.000000
      dyz     :     0.000000
      dx2y2   :     0.003757
      dxy     :     0.000000
      f0      :     0.000000  f :     0.000006
      f+1     :     0.000002
      f-1     :     0.000000
      f+2     :     0.000000
      f-2     :     0.000000
      f+3     :     0.000003
      f-3     :     0.000000
      g0      :     0.000000  g :     0.000000
      g+1     :     0.000000
      g-1     :     0.000000
      g+2     :     0.000000
      g-2     :     0.000000
      g+3     :     0.000000
      g-3     :     0.000000
      g+4     :     0.000000
      g-4     :     0.000000
  1 H s       :     1.000189  s :     1.000189
      pz      :     0.000000  p :    -0.000023
      px      :    -0.000023
      py      :     0.000000
      dz2     :    -0.000003  d :    -0.000012
      dxz     :     0.000000
      dyz     :     0.000000
      dx2y2   :    -0.000009
      dxy     :     0.000000
      f0      :     0.000000  f :    -0.000001
      f+1     :    -0.000000
      f-1     :    -0.000000
      f+2     :     0.000000
      f-2     :     0.000000
      f+3     :    -0.000000
      f-3     :    -0.000000

SPIN
  0 B s       :    -0.001046  s :    -0.001046
      pz      :     0.000000  p :     0.999986
      px      :     0.999986
      py      :     0.000000
      dz2     :     0.000278  d :     0.001111
      dxz     :     0.000000
      dyz     :     0.000000
      dx2y2   :     0.000833
      dxy     :     0.000000
      f0      :     0.000000  f :     0.000027
      f+1     :     0.000010
      f-1     :     0.000000
      f+2     :     0.000000
      f-2     :    -0.000000
      f+3     :     0.000017
      f-3     :     0.000000
      g0      :    -0.000000  g :    -0.000000
      g+1     :    -0.000000
      g-1     :    -0.000000
      g+2     :    -0.000000
      g-2     :    -0.000000
      g+3     :    -0.000000
      g-3     :     0.000000
      g+4     :    -0.000000
      g-4     :    -0.000000
  1 H s       :    -1.000021  s :    -1.000021
      pz      :    -0.000000  p :    -0.000045
      px      :    -0.000045
      py      :    -0.000000
      dz2     :    -0.000003  d :    -0.000012
      dxz     :     0.000000
      dyz     :    -0.000000
      dx2y2   :    -0.000009
      dxy     :    -0.000000
      f0      :    -0.000000  f :    -0.000001
      f+1     :    -0.000000
      f-1     :    -0.000000
      f+2     :    -0.000000
      f-2     :    -0.000000
      f+3     :    -0.000000
      f-3     :    -0.000000


                     *******************************
                     * LOEWDIN POPULATION ANALYSIS *
                     *******************************

-------------------------------------------
LOEWDIN ATOMIC CHARGES AND SPIN POPULATIONS
-------------------------------------------
   0 B :   -0.004268    0.993264
   1 H :    0.004268   -0.993264

----------------------------------------------------
LOEWDIN REDUCED ORBITAL CHARGES AND SPIN POPULATIONS
----------------------------------------------------
CHARGE
  0 B s       :     3.994361  s :     3.994361
      pz      :     0.000000  p :     1.002954
      px      :     1.002954
      py      :     0.000000
      dz2     :     0.001723  d :     0.006893
      dxz     :     0.000000
      dyz     :     0.000000
      dx2y2   :     0.005170
      dxy     :     0.000000
      f0      :     0.000000  f :     0.000059
      f+1     :     0.000022
      f-1     :     0.000000
      f+2     :     0.000000
      f-2     :     0.000000
      f+3     :     0.000037
      f-3     :     0.000000
      g0      :     0.000000  g :     0.000001
      g+1     :     0.000000
      g-1     :     0.000000
      g+2     :     0.000000
      g-2     :     0.000000
      g+3     :     0.000000
      g-3     :     0.000000
      g+4     :     0.000000
      g-4     :     0.000000
  1 H s       :     0.995399  s :     0.995399
      pz      :     0.000000  p :     0.000304
      px      :     0.000304
      py      :     0.000000
      dz2     :     0.000007  d :     0.000027
      dxz     :     0.000000
      dyz     :     0.000000
      dx2y2   :     0.000020
      dxy     :     0.000000
      f0      :     0.000000  f :     0.000001
      f+1     :     0.000000
      f-1     :     0.000000
      f+2     :     0.000000
      f-2     :     0.000000
      f+3     :     0.000001
      f-3     :     0.000000

SPIN
  0 B s       :    -0.001178  s :    -0.001178
      pz      :     0.000000  p :     0.995199
      px      :     0.995199
      py      :     0.000000
      dz2     :    -0.000182  d :    -0.000729
      dxz     :     0.000000
      dyz     :     0.000000
      dx2y2   :    -0.000547
      dxy     :     0.000000
      f0      :     0.000000  f :    -0.000027
      f+1     :    -0.000010
      f-1     :     0.000000
      f+2     :     0.000000
      f-2     :    -0.000000
      f+3     :    -0.000017
      f-3     :     0.000000
      g0      :    -0.000000  g :    -0.000001
      g+1     :    -0.000000
      g-1     :     0.000000
      g+2     :    -0.000000
      g-2     :    -0.000000
      g+3     :    -0.000000
      g-3     :    -0.000000
      g+4     :    -0.000000
      g-4     :    -0.000000
  1 H s       :    -0.993544  s :    -0.993544
      pz      :    -0.000000  p :     0.000255
      px      :     0.000255
      py      :    -0.000000
      dz2     :     0.000006  d :     0.000024
      dxz     :     0.000000
      dyz     :    -0.000000
      dx2y2   :     0.000018
      dxy     :     0.000000
      f0      :     0.000000  f :     0.000001
      f+1     :     0.000000
      f-1     :     0.000000
      f+2     :     0.000000
      f-2     :    -0.000000
      f+3     :     0.000001
      f-3     :     0.000000


                      *****************************
                      * MAYER POPULATION ANALYSIS *
                      *****************************

  NA   - Mulliken gross atomic population
  ZA   - Total nuclear charge
  QA   - Mulliken gross atomic charge
  VA   - Mayer's total valence
  BVA  - Mayer's bonded valence
  FA   - Mayer's free valence

  ATOM       NA         ZA         QA         VA         BVA        FA
  0 B      4.9998     5.0000     0.0002     1.0228     0.0001     1.0227
  1 H      1.0002     1.0000    -0.0002     1.0001     0.0001     1.0001

  Mayer bond orders larger than 0.100000


-------
TIMINGS
-------

Total SCF time: 0 days 0 hours 0 min 0 sec 

Total time                  ....       0.990 sec
Sum of individual times     ....       0.868 sec  ( 87.7%)

Fock matrix formation       ....       0.853 sec  ( 86.2%)
Diagonalization             ....       0.006 sec  (  0.6%)
Density matrix formation    ....       0.000 sec  (  0.0%)
Population analysis         ....       0.002 sec  (  0.2%)
Initial guess               ....       0.005 sec  (  0.5%)
Orbital Transformation      ....       0.000 sec  (  0.0%)
Orbital Orthonormalization  ....       0.003 sec  (  0.3%)
DIIS solution               ....       0.001 sec  (  0.1%)

Maximum memory used throughout the entire SCF-calculation: 254.9 MB


------------------------------------------------------------------------------- 
                              ORCA-MATRIX DRIVEN CI                            
------------------------------------------------------------------------------- 

--------------------------------
AUTOMATIC CHOICE OF INCORE LEVEL
--------------------------------

Memory available                           ...    256.00 MB
Memory needed for S+T                      ...      1.04 MB
Memory needed for J+K                      ...      2.08 MB
Memory needed for DIIS                     ...     14.54 MB
Memory needed for 3-ext                    ...     28.39 MB
Memory needed for 4-ext                    ...    880.23 MB
Memory needed for triples                  ...      0.00 MB
 -> Final InCoreLevel    ... 4

Wavefunction type
-----------------
Correlation treatment                      ...      CCSD     
Single excitations                         ... ON
Orbital optimization                       ... OFF
Calculation of Z vector                    ... OFF
Calculation of Brueckner orbitals          ... OFF
Perturbative triple excitations            ... OFF
Calculation of F12 correction              ... OFF
Frozen core treatment                      ... chemical core (2 el)
Reference Wavefunction                     ... UHF
  Alpha-MOs occ    :     1 ...    2 (  2 MO's/  2 electrons)
  Beta-MOs occ     :     1 ...    2 (  2 MO's/  2 electrons)
  Alpha-MOs virt   :     3 ...  125 (123 MO's              )
  Beta-MOs virt    :     3 ...  125 (123 MO's              )
Number of AO's                             ...    126
Number of electrons                        ...      6
Number of correlated electrons             ...      4

Algorithmic settings
--------------------
Integral transformation                    ... AO direct full transformation
K(C) Formation                             ... FULL-MO TRAFO
Maximum number of iterations               ...        50
Convergence tolerance (max. residuum)      ... 1.000e-06
Level shift for amplitude update           ... 2.000e-01
Maximum number of DIIS vectors             ...         7
DIIS turned on at iteration                ...         0
Damping before turning on DIIS             ...     0.500
Damping after turning on DIIS              ...     0.000
Pair specific amplitude update             ... OFF
Natural orbital iterations                 ... OFF
Perturbative natural orbital generation    ... OFF
Printlevel                                 ... 2

Memory handling:
----------------
Maximum memory for working arrays          ...    256 MB
Data storage in matrix containers          ... UNCOMPRESSED
Data type for integral storage             ... DOUBLE
In-Core Storage of quantities:
   Amplitudes+Sigma Vector      ... YES
   J+K operators                ... YES
   DIIS vectors                 ... YES
   3-external integrals         ... YES
   4-external integrals         ... NO


Initializing the integral package          ... done
Warning: reference  - re-canonicalizations have been set to INT 1 VIRT 1

--------------------------
UNRESTRICTED FOCK OPERATOR
--------------------------

Restoring SHARK [2] ... ok
Recanonicalizing the internal orbitals
Recanonicalizing the virtual orbitals
Time needed for Fock operator              ...            0.875 sec
Reference energy                           ...    -25.032937545
Warning: for UHF the TrafoType has to be JK
Warning: for UHF the K(C)-option but must be AOX

-------------------------------
PARTIAL EXCHANGE TRANSFORMATION
-------------------------------

Transformation type                        ... two-operators
Generation of integrals (i,mue|j,nue)      ... ON
Generation of integrals (mue,kappa|nue,tau)... ON
Generation of integrals (i,mue|a,nue)      ... ON
Dimension of the basis                     ...  126
Number of internal alpha-MOs               ...    2 (   1-   2)
Number of internal beta-MOs                ...    2 (   1-   2)
Number of external alpha-MOs               ...  123 (   3- 125)
Number of external beta-MOs                ...  123 (   3- 125)
Pair cutoff                                ... 0.000e+00 Eh
Number of AO pairs in the trafo            ... 8001
Total Number of distinct AO pairs          ... 8001
Memory devoted for trafo                   ...  256.0 MB 
Max. Number of MO pairs treated together   ... 2113      
Number Format for Storage                  ... Double (8 Byte)
Integral package used                      ... LIBINT

Starting integral evaluation:
    ... done with AO integral generation
Closing buffer AOK[aa] ( 0.00 GB; CompressionRatio= 0.73)
Closing buffer AOK[bb] ( 0.00 GB; CompressionRatio= 0.73)
Closing buffer AOK[ab] ( 0.00 GB; CompressionRatio= 0.73)
Closing buffer AOK[ba] ( 0.00 GB; CompressionRatio= 0.73)
Collecting buffer AOK 
Closing buffer IAAO1[aa] ( 0.01 GB; CompressionRatio= 0.99)
Closing buffer IAAO1[bb] ( 0.01 GB; CompressionRatio= 0.99)
Closing buffer IAAO1[ab] ( 0.01 GB; CompressionRatio= 0.99)
Closing buffer IAAO1[ba] ( 0.01 GB; CompressionRatio= 0.99)
Closing buffer IAAO2[aa] ( 0.01 GB; CompressionRatio= 0.99)
Closing buffer IAAO2[bb] ( 0.01 GB; CompressionRatio= 0.99)
Closing buffer IAAO2[ab] ( 0.01 GB; CompressionRatio= 0.99)
Closing buffer IAAO2[ba] ( 0.01 GB; CompressionRatio= 0.99)
Collecting buffer IAAO 
Closing buffer PRQS    ( 0.95 GB; CompressionRatio= 1.00)
Collecting buffer PRQS 
Number of alpha/alpha MO pairs in trafo    ...    3
Number of beta /beta  MO pairs in trafo    ...    3
Number of alpha/ beta MO pairs in trafo    ...    4
------------------------
SORTING OF (i,mue|j,nue)
------------------------

SORTING OF ALPHA/ALPHA PAIRS
IBATCH = 1 of  1
Closing buffer KAO[aa] ( 0.00 GB; CompressionRatio= 1.00)
Collecting buffer KAO 
SORTING OF BETA /BETA  PAIRS
IBATCH = 1 of  1
Closing buffer KAO[bb] ( 0.00 GB; CompressionRatio= 1.00)
Collecting buffer KAO 
SORTING OF ALPHA/BETA  PAIRS
IBATCH = 1 of  1
Closing buffer KAO[ab] ( 0.00 GB; CompressionRatio= 0.999905526689)
Collecting buffer KAO[ab] 
------------------------
SORTING OF (i,mue|a,nue)
------------------------

Number of alpha/alpha (i,a) pairs in trafo  ...  246
Number of beta /beta  (i,a) pairs in trafo  ...  246
Number of alpha/ beta (i,a) pairs in trafo  ...  246
Number of beta /alpha (i,a) pairs in trafo  ...  246
Setting up the alpha/alpha list             ... done
Setting up the beta /beta  list             ... done
Setting up the alpha/beta  list             ... done
Setting up the beta /alpha list             ... done
    ... Now sorting (i,mue|a,nue)integrals
    ... Integrals (i,b|a,c) will be made on the fly
SORTING OF ALPHA/ALPHA PAIRS
IBATCH = 1 of  1
Closing buffer IPAQ[aa]  0.03 GB; CompressionRatio= 1.00)
SORTING OF BETA /BETA  PAIRS
IBATCH = 1 of  1
Closing buffer IPAQ[bb]( 0.03 GB; CompressionRatio= 1.00)
SORTING OF ALPHA/BETA  PAIRS (NMatSort_ab=246)
IBATCH = 1 of  1
Closing buffer IPAQ[ab]( 0.03 GB; CompressionRatio= 1.00)
SORTING OF BETA/ALPHA  PAIRS
IBATCH = 1 of  1
Closing buffer IPAQ[ba]( 0.03 GB; CompressionRatio= 1.00)
N(AO-Batches) Done                         ...    567673 
N(AO-Batches) Skipped                      ...         0 
N(IJ)-pairs Skipped                        ...         0 
TOTAL TIME for half transformation         ...     4.934 sec
AO-integral generation                     ...     2.983 sec
Half transformation                        ...     0.862 sec
K-integral sorting                         ...     0.391 sec

------------------------------
PARTIAL COULOMB TRANSFORMATION
------------------------------

Transformation type                        ... two-operators
Dimension of the basis                     ...  126
Number of internal alpha-MOs               ...    2 (1-2)
Number of internal beta-MOs                ...    2 (1-2)
Pair cutoff                                ... 0.000e+00 Eh
Number of AO pairs included in the trafo   ... 8001
Total Number of distinct AO pairs          ... 8001
Memory devoted for trafo                   ...  256.0 MB 
Max. Number of MO pairs treated together   ... 4193      
Max. Number of MOs treated per batch       ...   33      
Number Format for Storage                  ... Double (8 Byte)
AO-integral source                         ... DIRECT
Integral package used                      ... LIBINT

Starting integral evaluation:
<ss|**>:        32520 b        0 skpd     0.048 s (  0.001 ms/b)
<sp|**>:        48780 b        0 skpd     0.069 s (  0.001 ms/b)
<sd|**>:        37398 b        0 skpd     0.093 s (  0.002 ms/b)
<sf|**>:        27100 b        0 skpd     0.118 s (  0.004 ms/b)
<sg|**>:        10840 b        0 skpd     0.098 s (  0.009 ms/b)
<pp|**>:        22764 b        0 skpd     0.063 s (  0.003 ms/b)
<pd|**>:        30894 b        0 skpd     0.151 s (  0.005 ms/b)
<pf|**>:        22222 b        0 skpd     0.174 s (  0.008 ms/b)
<pg|**>:         8672 b        0 skpd     0.113 s (  0.013 ms/b)
<dd|**>:        14092 b        0 skpd     0.126 s (  0.009 ms/b)
<df|**>:        17344 b        0 skpd     0.260 s (  0.015 ms/b)
<dg|**>:         7046 b        0 skpd     0.157 s (  0.022 ms/b)
<ff|**>:         7588 b        0 skpd     0.197 s (  0.026 ms/b)
<fg|**>:         4878 b        0 skpd     0.186 s (  0.038 ms/b)
<gg|**>:         1626 b        0 skpd     0.098 s (  0.060 ms/b)
Closing buffer AOJ[aa] ( 0.00 GB; CompressionRatio= 0.67)
Closing buffer AOJ[bb] ( 0.00 GB; CompressionRatio= 0.67)
Collecting buffer AOJ 
    ... done with AO integral generation
Number of Alpha-MO pairs included          ...    3
Number of Beta-MO pairs included           ...    3
    ... Now sorting integrals
SORTING ALPHA/ALPHA PAIRS
IBATCH = 1 of  1
Closing buffer JAO[aa] ( 0.00 GB; CompressionRatio= 1.00)
SORTING BETA/BETA PAIRS
IBATCH = 1 of  1
Closing buffer JAO[bb] ( 0.00 GB; CompressionRatio= 1.00)
Collecting buffer JAO 
TOTAL TIME for half transformation         ...     1.959 sec
AO-integral generation                     ...     1.595 sec
Half transformation                        ...     0.359 sec
J-integral sorting                         ...     0.005 sec

-------------------------- SECOND HALF TRANSFORMATION -------------------------
Formation of (ij|kl),(ij|ka), (ij|ab)      ... ok (     0.004 sec)
Formation of (ik|jl),(ik|ja), (ia|jb)      ... ok (     0.005 sec)


-----------------------
SPIN UNRESTRICTED GUESS
-----------------------

Spin-components of the MP2 energy:
EMP2(aa)=     -0.003426798
EMP2(bb)=     -0.000009366
EMP2(ab)=     -0.043844210

Initial guess performed in     0.000 sec
E(0)                                       ...    -25.032937545
E(MP2)                                     ...     -0.047280375
Initial E(tot)                             ...    -25.080217920
<T|T>                                      ...      0.026726056
Number of pairs included                   ... 6

------------------------------------------------
                  UHF COUPLED CLUSTER ITERATIONS
------------------------------------------------

Number of amplitudes to be optimized       ...        75890

Iter       E(tot)           E(Corr)          Delta-E          Residual     Time      <S|S>**1/2
  0    -25.080217920     -0.047280375      0.000000000      0.017568315    0.84      0.000000003
                           *** Turning on DIIS ***
  1    -25.089309083     -0.056371538     -0.009091163      0.010759188    1.67      0.009933525
  2    -25.097163983     -0.064226438     -0.007854900      0.003450501    1.70      0.020323756
  3    -25.099216932     -0.066279386     -0.002052948      0.000701189    1.72      0.024776243
  4    -25.099427848     -0.066490303     -0.000210916      0.000152057    1.69      0.025774389
  5    -25.099486323     -0.066548778     -0.000058475      0.000038088    1.70      0.025984068
  6    -25.099481511     -0.066543966      0.000004812      0.000015636    1.70      0.025985154
  7    -25.099482997     -0.066545452     -0.000001486      0.000009330    1.70      0.025984317
  8    -25.099482770     -0.066545224      0.000000228      0.000007000    1.70      0.025983689
  9    -25.099482774     -0.066545228     -0.000000004      0.000006770    1.70      0.025984812
 10    -25.099482562     -0.066545017      0.000000211      0.000006444    1.70      0.025985902
 11    -25.099482778     -0.066545232     -0.000000215      0.000005964    1.72      0.025987075
 12    -25.099482897     -0.066545351     -0.000000119      0.000005465    1.70      0.025987355
 13    -25.099482944     -0.066545398     -0.000000047      0.000004369    1.70      0.025987214
 14    -25.099482758     -0.066545213      0.000000186      0.000002293    1.70      0.025986555
 15    -25.099482652     -0.066545107      0.000000106      0.000000868    1.70      0.025986423
               --- The Coupled-Cluster iterations have converged ---

----------------------
COUPLED CLUSTER ENERGY
----------------------

E(0)                                       ...    -25.032937545
E(CORR)                                    ...     -0.066545107
E(TOT)                                     ...    -25.099482652
Singles norm <S|S>**1/2                    ...      0.025986423 ( 0.014297940, 0.011688483)  
T1 diagnostic                              ...      0.012993212                              

------------------
LARGEST AMPLITUDES
------------------
   1a->  9a   2b->  8b       0.070461
   1a->  8a   2b->  9b       0.070461
   1a->  4a   2b->  8b       0.062860
   1a->  5a   2b->  9b       0.062860
   1a->  8a   2b->  4b       0.052575
   1a->  9a   2b->  3b       0.052575
   1a->  5a   2b->  4b       0.046928
   1a->  4a   2b->  3b       0.046928
   1a->  8a   2b-> 20b       0.043654
   1a->  9a   2b-> 19b       0.043654
   1a-> 20a   2b->  9b       0.040766
   1a-> 21a   2b->  8b       0.040766
   1a->  4a   2b-> 19b       0.038781
   1a->  5a   2b-> 20b       0.038781
   1a-> 20a   2b-> 20b       0.032197
   1a-> 21a   2b-> 19b       0.032197



        !!!!!!!!!!!!!!!!!!!!!!!!!!!!!!!!!!!!!!!!!!!!!!!!!!!!!!!!!!!!!!!!!!!!!!!!!! 
        !  Warning: Densities are linearized densities                           !
        !!!!!!!!!!!!!!!!!!!!!!!!!!!!!!!!!!!!!!!!!!!!!!!!!!!!!!!!!!!!!!!!!!!!!!!!!! 

NORM  =      1.072831536 sqrt=     1.035775814
W(HF) =      0.932112793
------------------------------------------------------------------------------
                           ORCA POPULATION ANALYSIS
------------------------------------------------------------------------------
Input electron density              ... /scratch/BH-5.2-UCCSD-O_935/BH-5.2-UCCSD-O.mdcip
Input spin density                  ... /scratch/BH-5.2-UCCSD-O_935/BH-5.2-UCCSD-O.mdcir
BaseName (.gbw .S,...)              ... /scratch/BH-5.2-UCCSD-O_935/BH-5.2-UCCSD-O

                    ********************************
                    * MULLIKEN POPULATION ANALYSIS *
                    ********************************

------------------------------------------
MULLIKEN ATOMIC CHARGES AND SPIN DENSITIES
------------------------------------------
   0 B :    0.000172    0.999998
   1 H :   -0.000172   -0.999998
Sum of atomic charges       :   -0.0000000
Sum of atomic spin densities:    0.0000000

---------------------------------------------------
MULLIKEN REDUCED ORBITAL CHARGES AND SPIN DENSITIES
---------------------------------------------------
CHARGE
  0 B s       :     3.883078  s :     3.883078
      pz      :     0.051997  p :     1.094787
      px      :     0.990792
      py      :     0.051997
      dz2     :     0.002174  d :     0.021072
      dxz     :     0.006303
      dyz     :     0.000230
      dx2y2   :     0.006062
      dxy     :     0.006303
      f0      :     0.000079  f :     0.000791
      f+1     :     0.000136
      f-1     :     0.000030
      f+2     :     0.000118
      f-2     :     0.000100
      f+3     :     0.000160
      f-3     :     0.000167
      g0      :     0.000008  g :     0.000100
      g+1     :     0.000013
      g-1     :     0.000004
      g+2     :     0.000010
      g-2     :     0.000010
      g+3     :     0.000012
      g-3     :     0.000012
      g+4     :     0.000015
      g-4     :     0.000015
  1 H s       :     1.000133  s :     1.000133
      pz      :     0.000009  p :     0.000047
      px      :     0.000029
      py      :     0.000009
      dz2     :    -0.000002  d :    -0.000007
      dxz     :     0.000001
      dyz     :     0.000000
      dx2y2   :    -0.000006
      dxy     :     0.000001
      f0      :     0.000000  f :    -0.000000
      f+1     :    -0.000000
      f-1     :     0.000000
      f+2     :     0.000000
      f-2     :     0.000000
      f+3     :    -0.000000
      f-3     :     0.000000

SPIN
  0 B s       :     0.017033  s :     0.017033
      pz      :    -0.001831  p :     0.972946
      px      :     0.976608
      py      :    -0.001831
      dz2     :     0.000978  d :     0.009579
      dxz     :     0.002823
      dyz     :    -0.000022
      dx2y2   :     0.002978
      dxy     :     0.002823
      f0      :     0.000035  f :     0.000403
      f+1     :     0.000075
      f-1     :     0.000004
      f+2     :     0.000059
      f-2     :     0.000044
      f+3     :     0.000096
      f-3     :     0.000090
      g0      :     0.000003  g :     0.000038
      g+1     :     0.000005
      g-1     :     0.000001
      g+2     :     0.000004
      g-2     :     0.000003
      g+3     :     0.000005
      g-3     :     0.000005
      g+4     :     0.000006
      g-4     :     0.000006
  1 H s       :    -0.999918  s :    -0.999918
      pz      :    -0.000008  p :    -0.000067
      px      :    -0.000051
      py      :    -0.000008
      dz2     :    -0.000003  d :    -0.000012
      dxz     :    -0.000000
      dyz     :    -0.000000
      dx2y2   :    -0.000009
      dxy     :    -0.000000
      f0      :    -0.000000  f :    -0.000001
      f+1     :    -0.000000
      f-1     :    -0.000000
      f+2     :    -0.000000
      f-2     :    -0.000000
      f+3     :    -0.000000
      f-3     :    -0.000000


                     *******************************
                     * LOEWDIN POPULATION ANALYSIS *
                     *******************************

-----------------------------------------
LOEWDIN ATOMIC CHARGES AND SPIN DENSITIES
-----------------------------------------
   0 B :   -0.004269    0.993064
   1 H :    0.004269   -0.993064

--------------------------------------------------
LOEWDIN REDUCED ORBITAL CHARGES AND SPIN DENSITIES
--------------------------------------------------
CHARGE
  0 B s       :     3.882735  s :     3.882735
      pz      :     0.051997  p :     1.097638
      px      :     0.993643
      py      :     0.051997
      dz2     :     0.002643  d :     0.022949
      dxz     :     0.006303
      dyz     :     0.000230
      dx2y2   :     0.007469
      dxy     :     0.006303
      f0      :     0.000079  f :     0.000846
      f+1     :     0.000157
      f-1     :     0.000030
      f+2     :     0.000118
      f-2     :     0.000100
      f+3     :     0.000195
      f-3     :     0.000167
      g0      :     0.000008  g :     0.000100
      g+1     :     0.000013
      g-1     :     0.000004
      g+2     :     0.000010
      g-2     :     0.000010
      g+3     :     0.000012
      g-3     :     0.000012
      g+4     :     0.000016
      g-4     :     0.000015
  1 H s       :     0.995291  s :     0.995291
      pz      :     0.000009  p :     0.000401
      px      :     0.000383
      py      :     0.000009
      dz2     :     0.000009  d :     0.000037
      dxz     :     0.000001
      dyz     :     0.000000
      dx2y2   :     0.000026
      dxy     :     0.000001
      f0      :     0.000000  f :     0.000002
      f+1     :     0.000001
      f-1     :     0.000000
      f+2     :     0.000000
      f-2     :     0.000000
      f+3     :     0.000001
      f-3     :     0.000000

SPIN
  0 B s       :     0.016874  s :     0.016874
      pz      :    -0.001831  p :     0.968072
      px      :     0.971733
      py      :    -0.001831
      dz2     :     0.000516  d :     0.007730
      dxz     :     0.002823
      dyz     :    -0.000022
      dx2y2   :     0.001591
      dxy     :     0.002823
      f0      :     0.000035  f :     0.000351
      f+1     :     0.000055
      f-1     :     0.000004
      f+2     :     0.000059
      f-2     :     0.000044
      f+3     :     0.000063
      f-3     :     0.000090
      g0      :     0.000003  g :     0.000037
      g+1     :     0.000005
      g-1     :     0.000001
      g+2     :     0.000004
      g-2     :     0.000003
      g+3     :     0.000005
      g-3     :     0.000005
      g+4     :     0.000006
      g-4     :     0.000006
  1 H s       :    -0.993349  s :    -0.993349
      pz      :    -0.000008  p :     0.000256
      px      :     0.000272
      py      :    -0.000008
      dz2     :     0.000007  d :     0.000027
      dxz     :    -0.000000
      dyz     :    -0.000000
      dx2y2   :     0.000021
      dxy     :    -0.000000
      f0      :    -0.000000  f :     0.000001
      f+1     :     0.000001
      f-1     :    -0.000000
      f+2     :    -0.000000
      f-2     :    -0.000000
      f+3     :     0.000001
      f-3     :    -0.000000


                      *****************************
                      * MAYER POPULATION ANALYSIS *
                      *****************************

  NA   - Mulliken gross atomic population
  ZA   - Total nuclear charge
  QA   - Mulliken gross atomic charge
  VA   - Mayer's total valence
  BVA  - Mayer's bonded valence
  FA   - Mayer's free valence

  ATOM       NA         ZA         QA         VA         BVA        FA
  0 B      4.9998     5.0000     0.0002     1.5048     0.0002     1.5046
  1 H      1.0002     1.0000    -0.0002     1.0003     0.0002     1.0001

  Mayer bond orders larger than 0.100000




------------------------------------------------------------------------------- 
                                     TIMINGS                                   
------------------------------------------------------------------------------- 


Total execution time                   ...       34.314 sec

Fock Matrix Formation                  ...        0.875 sec (  2.5%)
Initial Guess                          ...        0.000 sec (  0.0%)
DIIS Solver                            ...        0.075 sec (  0.2%)
State Vector Update                    ...        0.004 sec (  0.0%)
Sigma-vector construction              ...       26.266 sec ( 76.5%)
  <0|H|D>                              ...        0.007 sec (  0.0% of sigma)
  <D|H|D>(0-ext Fock)                  ...        0.008 sec (  0.0% of sigma)
  <D|H|D>(0-ext)                       ...        0.007 sec (  0.0% of sigma)
  <D|H|D>(2-ext Fock)                  ...        0.015 sec (  0.1% of sigma)
  <D|H|D>(2-ext)                       ...        0.112 sec (  0.4% of sigma)
  <D|H|D>(4-ext)                       ...        9.806 sec ( 37.3% of sigma)
  <S|H|D>(1-ext)                       ...        0.003 sec (  0.0% of sigma)
  <D|H|S>(1-ext)                       ...        0.019 sec (  0.1% of sigma)
  Fock-dressing                        ...       14.555 sec ( 55.4% of sigma)
  (ik|jl)-dressing                     ...        0.008 sec (  0.0% of sigma)
  (ij|ab),(ia|jb)-dressing             ...        1.326 sec (  5.0% of sigma)
  Pair energies                        ...        0.005 sec (  0.0% of sigma)


Maximum memory used throughout the entire MDCI-calculation: 386.3 MB

-------------------------   --------------------
FINAL SINGLE POINT ENERGY       -25.099482652000
-------------------------   --------------------


                            ***************************************
                            *     ORCA property calculations      *
                            ***************************************

                                    ---------------------
                                    Active property flags
                                    ---------------------
   (+) Dipole Moment


------------------------------------------------------------------------------
                       ORCA ELECTRIC PROPERTIES CALCULATION
------------------------------------------------------------------------------

Dipole Moment Calculation                       ... on
Quadrupole Moment Calculation                   ... off
Polarizability Calculation                      ... off
GBWName                                         ... /scratch/BH-5.2-UCCSD-O_935/BH-5.2-UCCSD-O.gbw
Electron density file                           ... /scratch/BH-5.2-UCCSD-O_935/BH-5.2-UCCSD-O.scfp
The origin for moment calculation is the CENTER OF MASS  = ( 0.838144,  0.000000  0.000000)

-------------
DIPOLE MOMENT
-------------
                                X             Y             Z
Electronic contribution:     -4.80184      -0.00000      -0.00000
Nuclear contribution   :      4.79771       0.00000       0.00000
                        -----------------------------------------
Total Dipole Moment    :     -0.00413      -0.00000      -0.00000
                        -----------------------------------------
Magnitude (a.u.)       :      0.00413
Magnitude (Debye)      :      0.01051



--------------------
Rotational spectrum 
--------------------
 
Rotational constants in cm-1:     0.000000     0.676158     0.676158 
Rotational constants in MHz :     0.000000 20270.696732 20270.696732 

 Dipole components along the rotational axes: 
x,y,z [a.u.] :    -0.004134    -0.000000    -0.000000 
x,y,z [Debye]:    -0.010509    -0.000000    -0.000000 

 

                           *** MDCI DENSITY ***

------------------------------------------------------------------------------
                       ORCA ELECTRIC PROPERTIES CALCULATION
------------------------------------------------------------------------------

Dipole Moment Calculation                       ... on
Quadrupole Moment Calculation                   ... off
Polarizability Calculation                      ... off
GBWName                                         ... /scratch/BH-5.2-UCCSD-O_935/BH-5.2-UCCSD-O.gbw
Electron density file                           ... /scratch/BH-5.2-UCCSD-O_935/BH-5.2-UCCSD-O.mdcip
The origin for moment calculation is the CENTER OF MASS  = ( 0.838144,  0.000000  0.000000)

-------------
DIPOLE MOMENT
-------------
                                X             Y             Z
Electronic contribution:     -4.80279      -0.00000      -0.00000
Nuclear contribution   :      4.79771       0.00000       0.00000
                        -----------------------------------------
Total Dipole Moment    :     -0.00508      -0.00000      -0.00000
                        -----------------------------------------
Magnitude (a.u.)       :      0.00508
Magnitude (Debye)      :      0.01290



--------------------
Rotational spectrum 
--------------------
 
Rotational constants in cm-1:     0.000000     0.676158     0.676158 
Rotational constants in MHz :     0.000000 20270.696732 20270.696732 

 Dipole components along the rotational axes: 
x,y,z [a.u.] :    -0.005075    -0.000000    -0.000000 
x,y,z [Debye]:    -0.012900    -0.000000    -0.000000 

 

Timings for individual modules:

Sum of individual times         ...       35.687 sec (=   0.595 min)
GTO integral calculation        ...        0.124 sec (=   0.002 min)   0.3 %
SCF iterations                  ...        1.005 sec (=   0.017 min)   2.8 %
MDCI module                     ...       34.557 sec (=   0.576 min)  96.8 %
                             ****ORCA TERMINATED NORMALLY****
TOTAL RUN TIME: 0 days 0 hours 0 minutes 35 seconds 811 msec

Sender: Unischeduler System <lcz@mgt01>
Subject: Job 134322: <#!/bin/bash
#BSUB -J intel
#BSUB -o BH-5.2-UCCSD-O.out
#BSUB -n 1
#BSUB -q cqueue
export LD_LIBRARY_PATH=/apps/software/openmpi-4.1.1/lib:/apps/software/orca_5_0_0:$LD_LIBRARY_PATH
export PATH=/apps/software/openmpi-4.1.1/bin:/apps/software/orca_5_0_0:$PATH
mkdir /scratch/BH-5.2-UCCSD-O_935
scp $USER@mgt01:/apps/users/lcz/exe13/UCCSD/BH-5.2-UCCSD-O.inp /scratch/BH-5.2-UCCSD-O_935
scp $USER@mgt01:/apps/users/lcz/exe13/UCCSD/BH-5.2-UHF-O.gbw /scratch/BH-5.2-UCCSD-O_935
/apps/software/orca_5_0_0/orca /scratch/BH-5.2-UCCSD-O_935/BH-5.2-UCCSD-O.inp >& BH-5.2-UCCSD-O.out
scp /scratch/BH-5.2-UCCSD-O_935/*.gbw $USER@mgt01:/apps/users/lcz/exe13/UCCSD
scp /scratch/BH-5.2-UCCSD-O_935/*.xyz $USER@mgt01:/apps/users/lcz/exe13/UCCSD
scp /scratch/BH-5.2-UCCSD-O_935/*.trj $USER@mgt01:/apps/users/lcz/exe13/UCCSD> Exited

Job <#!/bin/bash
#BSUB -J intel
#BSUB -o BH-5.2-UCCSD-O.out
#BSUB -n 1
#BSUB -q cqueue
export LD_LIBRARY_PATH=/apps/software/openmpi-4.1.1/lib:/apps/software/orca_5_0_0:$LD_LIBRARY_PATH
export PATH=/apps/software/openmpi-4.1.1/bin:/apps/software/orca_5_0_0:$PATH
mkdir /scratch/BH-5.2-UCCSD-O_935
scp $USER@mgt01:/apps/users/lcz/exe13/UCCSD/BH-5.2-UCCSD-O.inp /scratch/BH-5.2-UCCSD-O_935
scp $USER@mgt01:/apps/users/lcz/exe13/UCCSD/BH-5.2-UHF-O.gbw /scratch/BH-5.2-UCCSD-O_935
/apps/software/orca_5_0_0/orca /scratch/BH-5.2-UCCSD-O_935/BH-5.2-UCCSD-O.inp >& BH-5.2-UCCSD-O.out
scp /scratch/BH-5.2-UCCSD-O_935/*.gbw $USER@mgt01:/apps/users/lcz/exe13/UCCSD
scp /scratch/BH-5.2-UCCSD-O_935/*.xyz $USER@mgt01:/apps/users/lcz/exe13/UCCSD
scp /scratch/BH-5.2-UCCSD-O_935/*.trj $USER@mgt01:/apps/users/lcz/exe13/UCCSD> was submitted from host <mgt01> by user <lcz>.
Job was executed on host(s) <1*cnode10>, in queue <cqueue>, as user <lcz>.
</apps/users/lcz> was used as the home directory.
</apps/users/lcz/exe13/UCCSD> was used as the working directory.
Started at 2022-05-22 20:34:11
Results reported at 2022-05-22 20:34:49

Your job looked like:

------------------------------------------------------------
# User input
#!/bin/bash
#BSUB -J intel
#BSUB -o BH-5.2-UCCSD-O.out
#BSUB -n 1
#BSUB -q cqueue
export LD_LIBRARY_PATH=/apps/software/openmpi-4.1.1/lib:/apps/software/orca_5_0_0:$LD_LIBRARY_PATH
export PATH=/apps/software/openmpi-4.1.1/bin:/apps/software/orca_5_0_0:$PATH
mkdir /scratch/BH-5.2-UCCSD-O_935
scp $USER@mgt01:/apps/users/lcz/exe13/UCCSD/BH-5.2-UCCSD-O.inp /scratch/BH-5.2-UCCSD-O_935
scp $USER@mgt01:/apps/users/lcz/exe13/UCCSD/BH-5.2-UHF-O.gbw /scratch/BH-5.2-UCCSD-O_935
/apps/software/orca_5_0_0/orca /scratch/BH-5.2-UCCSD-O_935/BH-5.2-UCCSD-O.inp >& BH-5.2-UCCSD-O.out
scp /scratch/BH-5.2-UCCSD-O_935/*.gbw $USER@mgt01:/apps/users/lcz/exe13/UCCSD
scp /scratch/BH-5.2-UCCSD-O_935/*.xyz $USER@mgt01:/apps/users/lcz/exe13/UCCSD
scp /scratch/BH-5.2-UCCSD-O_935/*.trj $USER@mgt01:/apps/users/lcz/exe13/UCCSD
------------------------------------------------------------

Exited with exit code 1.

Resource usage summary:

    CPU time   :           32.32 sec.
    Max Memory :               409 MB
    Max Processes  :               5


The output (if any) follows:

/scratch/BH-5.2-UCCSD-O_935/*.xyz: No such file or directory
/scratch/BH-5.2-UCCSD-O_935/*.trj: No such file or directory
