
                                        *****************
                                        * O   R   C   A *
                                        *****************

                                            #,                                       
                                            ###                                      
                                            ####                                     
                                            #####                                    
                                            ######                                   
                                           ########,                                 
                                     ,,################,,,,,                         
                               ,,#################################,,                 
                          ,,##########################################,,             
                       ,#########################################, ''#####,          
                    ,#############################################,,   '####,        
                  ,##################################################,,,,####,       
                ,###########''''           ''''###############################       
              ,#####''   ,,,,##########,,,,          '''####'''          '####       
            ,##' ,,,,###########################,,,                        '##       
           ' ,,###''''                  '''############,,,                           
         ,,##''                                '''############,,,,        ,,,,,,###''
      ,#''                                            '''#######################'''  
     '                                                          ''''####''''         
             ,#######,   #######,   ,#######,      ##                                
            ,#'     '#,  ##    ##  ,#'     '#,    #''#        ######   ,####,        
            ##       ##  ##   ,#'  ##            #'  '#       #        #'  '#        
            ##       ##  #######   ##           ,######,      #####,   #    #        
            '#,     ,#'  ##    ##  '#,     ,#' ,#      #,         ##   #,  ,#        
             '#######'   ##     ##  '#######'  #'      '#     #####' # '####'        



                  #######################################################
                  #                        -***-                        #
                  #          Department of theory and spectroscopy      #
                  #    Directorship and core code : Frank Neese         #
                  #        Max Planck Institute fuer Kohlenforschung    #
                  #                Kaiser Wilhelm Platz 1               #
                  #                 D-45470 Muelheim/Ruhr               #
                  #                      Germany                        #
                  #                                                     #
                  #                  All rights reserved                #
                  #                        -***-                        #
                  #######################################################


                         Program Version 5.0.0 -  RELEASE  -
                                (SVN: $Rev: 19529$)
                ($Date: 2021-06-28 11:36:33 +0200 (Mo, 28 Jun 2021) $)


 With contributions from (in alphabetic order):
   Daniel Aravena         : Magnetic Suceptibility
   Michael Atanasov       : Ab Initio Ligand Field Theory (pilot matlab implementation)
   Alexander A. Auer      : GIAO ZORA, VPT2 properties, NMR spectrum
   Ute Becker             : Parallelization
   Giovanni Bistoni       : ED, misc. LED, open-shell LED, HFLD
   Martin Brehm           : Molecular dynamics
   Dmytro Bykov           : SCF Hessian
   Vijay G. Chilkuri      : MRCI spin determinant printing, contributions to CSF-ICE
   Dipayan Datta          : RHF DLPNO-CCSD density
   Achintya Kumar Dutta   : EOM-CC, STEOM-CC
   Dmitry Ganyushin       : Spin-Orbit,Spin-Spin,Magnetic field MRCI
   Miquel Garcia          : C-PCM Hessian, Gaussian charge scheme
   Yang Guo               : DLPNO-NEVPT2, F12-NEVPT2, CIM, IAO-localization
   Andreas Hansen         : Spin unrestricted coupled pair/coupled cluster methods
   Benjamin Helmich-Paris : MC-RPA, TRAH-SCF, COSX integrals
   Lee Huntington         : MR-EOM, pCC
   Robert Izsak           : Overlap fitted RIJCOSX, COSX-SCS-MP3, EOM
   Marcus Kettner         : VPT2
   Christian Kollmar      : KDIIS, OOCD, Brueckner-CCSD(T), CCSD density, CASPT2, CASPT2-K
   Simone Kossmann        : Meta GGA functionals, TD-DFT gradient, OOMP2, MP2 Hessian
   Martin Krupicka        : Initial AUTO-CI
   Lucas Lang             : DCDCAS
   Marvin Lechner         : AUTO-CI (C++ implementation), FIC-MRCC
   Dagmar Lenk            : GEPOL surface, SMD
   Dimitrios Liakos       : Extrapolation schemes; Compound Job, initial MDCI parallelization
   Dimitrios Manganas     : Further ROCIS development; embedding schemes
   Dimitrios Pantazis     : SARC Basis sets
   Anastasios Papadopoulos: AUTO-CI, single reference methods and gradients
   Taras Petrenko         : DFT Hessian,TD-DFT gradient, ASA, ECA, R-Raman, ABS, FL, XAS/XES, NRVS
   Peter Pinski           : DLPNO-MP2, DLPNO-MP2 Gradient
   Christoph Reimann      : Effective Core Potentials
   Marius Retegan         : Local ZFS, SOC
   Christoph Riplinger    : Optimizer, TS searches, QM/MM, DLPNO-CCSD(T), (RO)-DLPNO pert. Triples
   Tobias Risthaus        : Range-separated hybrids, TD-DFT gradient, RPA, STAB
   Michael Roemelt        : Original ROCIS implementation
   Masaaki Saitow         : Open-shell DLPNO-CCSD energy and density
   Barbara Sandhoefer     : DKH picture change effects
   Avijit Sen             : IP-ROCIS
   Kantharuban Sivalingam : CASSCF convergence, NEVPT2, FIC-MRCI
   Bernardo de Souza      : ESD, SOC TD-DFT
   Georgi Stoychev        : AutoAux, RI-MP2 NMR
   Willem Van den Heuvel  : Paramagnetic NMR
   Boris Wezisla          : Elementary symmetry handling
   Frank Wennmohs         : Technical directorship


 We gratefully acknowledge several colleagues who have allowed us to
 interface, adapt or use parts of their codes:
   Stefan Grimme, W. Hujo, H. Kruse, P. Pracht,  : VdW corrections, initial TS optimization,
                  C. Bannwarth, S. Ehlert          DFT functionals, gCP, sTDA/sTD-DF
   Ed Valeev, F. Pavosevic, A. Kumar             : LibInt (2-el integral package), F12 methods
   Garnet Chan, S. Sharma, J. Yang, R. Olivares  : DMRG
   Ulf Ekstrom                                   : XCFun DFT Library
   Mihaly Kallay                                 : mrcc  (arbitrary order and MRCC methods)
   Jiri Pittner, Ondrej Demel                    : Mk-CCSD
   Frank Weinhold                                : gennbo (NPA and NBO analysis)
   Christopher J. Cramer and Donald G. Truhlar   : smd solvation model
   Lars Goerigk                                  : TD-DFT with DH, B97 family of functionals
   V. Asgeirsson, H. Jonsson                     : NEB implementation
   FAccTs GmbH                                   : IRC, NEB, NEB-TS, DLPNO-Multilevel, CI-OPT
                                                   MM, QMMM, 2- and 3-layer-ONIOM, Crystal-QMMM,
                                                   LR-CPCM, SF, NACMEs, symmetry and pop. for TD-DFT,
                                                   nearIR, NL-DFT gradient (VV10), updates on ESD,
                                                   ML-optimized integration grids
   S Lehtola, MJT Oliveira, MAL Marques          : LibXC Library
   Liviu Ungur et al                             : ANISO software


 Your calculation uses the libint2 library for the computation of 2-el integrals
 For citations please refer to: http://libint.valeyev.net

 Your ORCA version has been built with support for libXC version: 5.1.0
 For citations please refer to: https://tddft.org/programs/libxc/

 This ORCA versions uses:
   CBLAS   interface :  Fast vector & matrix operations
   LAPACKE interface :  Fast linear algebra routines
   SCALAPACK package :  Parallel linear algebra routines
   Shared memory     :  Shared parallel matrices
   BLAS/LAPACK       :  OpenBLAS 0.3.15  USE64BITINT DYNAMIC_ARCH NO_AFFINITY SkylakeX SINGLE_THREADED
        Core in use  :  SkylakeX
   Copyright (c) 2011-2014, The OpenBLAS Project


================================================================================

----- Orbital basis set information -----
Your calculation utilizes the basis: aug-cc-pVQZ 
    H, B-Ne : Obtained from the ccRepo (grant-hill.group.shef.ac.uk/ccrepo) Feb. 2017
              R. A. Kendall, T. H. Dunning, Jr., R. J. Harrison, J. Chem. Phys. 96, 6796 (1992)
         He : Obtained from the ccRepo (grant-hill.group.shef.ac.uk/ccrepo) Feb. 2017
              D. E. Woon, T. H. Dunning, Jr., J. Chem. Phys. 100, 2975 (1994)
  Li-Be, Na : Obtained from the ccRepo (grant-hill.group.shef.ac.uk/ccrepo) Feb. 2017
              B. P. Prascher, D. E. Woon, K. A. Peterson, T. H. Dunning, Jr., A. K. Wilson, Theor. Chem. Acc. 128, 69 (2011)
         Mg : Obtained from the Peterson Research Group Website (tyr0.chem.wsu.edu/~kipeters) Feb. 2017
              B. P. Prascher, D. E. Woon, K. A. Peterson, T. H. Dunning, Jr., A. K. Wilson, Theor. Chem. Acc. 128, 69 (2011)
      Al-Ar : Obtained from the ccRepo (grant-hill.group.shef.ac.uk/ccrepo) Feb. 2017
              D. E. Woon, T. H. Dunning, Jr., J. Chem. Phys. 98, 1358 (1993)
      Sc-Zn : Obtained from the ccRepo (grant-hill.group.shef.ac.uk/ccrepo) Feb. 2017
              N. B. Balabanov, K. A. Peterson, J. Chem. Phys. 123, 064107 (2005)
              N. B. Balabanov, K. A. Peterson, J. Chem. Phys. 125, 074110 (2006)
      Ga-Kr : Obtained from the ccRepo (grant-hill.group.shef.ac.uk/ccrepo) Feb. 2017
              A. K. Wilson, D. E. Woon, K. A. Peterson, T. H. Dunning, Jr., J. Chem. Phys. 110, 7667 (1999)

================================================================================
                                        WARNINGS
                       Please study these warnings very carefully!
================================================================================


WARNING: Post HF methods need fully converged wavefunctions
  ===> : Setting SCFConvForced true
         You can overwrite this default with %scf ConvForced false 


WARNING: MDCI localization with Augmented Hessian Foster-Boys
  ===> : Switching off randomization!

INFO   : the flag for use of the SHARK integral package has been found!

================================================================================
                                       INPUT FILE
================================================================================
NAME = /scratch/BH-6.0-UCCSD-O_953/BH-6.0-UCCSD-O.inp
|  1> ! UHF CCSD aug-cc-pVQZ VeryTightSCF MOread
|  2> 
|  3> %moinp "BH-6.0-UHF-O.gbw"
|  4> 
|  5> *xyz 0 1
|  6>  B	0.0	0.0	0.0
|  7>  H	6.0	0.0	0.0
|  8> **                         ****END OF INPUT****
================================================================================

                       ****************************
                       * Single Point Calculation *
                       ****************************

---------------------------------
CARTESIAN COORDINATES (ANGSTROEM)
---------------------------------
  B      0.000000    0.000000    0.000000
  H      6.000000    0.000000    0.000000

----------------------------
CARTESIAN COORDINATES (A.U.)
----------------------------
  NO LB      ZA    FRAG     MASS         X           Y           Z
   0 B     5.0000    0    10.810    0.000000    0.000000    0.000000
   1 H     1.0000    0     1.008   11.338357    0.000000    0.000000

--------------------------------
INTERNAL COORDINATES (ANGSTROEM)
--------------------------------
 B      0   0   0     0.000000000000     0.00000000     0.00000000
 H      1   0   0     6.000000000000     0.00000000     0.00000000

---------------------------
INTERNAL COORDINATES (A.U.)
---------------------------
 B      0   0   0     0.000000000000     0.00000000     0.00000000
 H      1   0   0    11.338356803528     0.00000000     0.00000000

---------------------
BASIS SET INFORMATION
---------------------
There are 2 groups of distinct atoms

 Group   1 Type B   : 22s7p4d3f2g contracted to 6s5p4d3f2g pattern {991111/31111/1111/111/11}
 Group   2 Type H   : 7s4p3d2f contracted to 5s4p3d2f pattern {31111/1111/111/11}

Atom   0B    basis set group =>   1
Atom   1H    basis set group =>   2
------------------------------------------------------------------------------
                           ORCA GTO INTEGRAL CALCULATION
------------------------------------------------------------------------------
------------------------------------------------------------------------------
                   ___                                                        
                  /   \      - P O W E R E D   B Y -                         
                 /     \                                                     
                 |  |  |   _    _      __       _____    __    __             
                 |  |  |  | |  | |    /  \     |  _  \  |  |  /  |          
                  \  \/   | |  | |   /    \    | | | |  |  | /  /          
                 / \  \   | |__| |  /  /\  \   | |_| |  |  |/  /          
                |  |  |   |  __  | /  /__\  \  |    /   |      \           
                |  |  |   | |  | | |   __   |  |    \   |  |\   \          
                \     /   | |  | | |  |  |  |  | |\  \  |  | \   \       
                 \___/    |_|  |_| |__|  |__|  |_| \__\ |__|  \__/        
                                                                              
                      - O R C A' S   B I G   F R I E N D -                    
                                      &                                       
                       - I N T E G R A L  F E E D E R -                       
                                                                              
 v1 FN, 2020, v2 2021                                                         
------------------------------------------------------------------------------


Reading SHARK input file /scratch/BH-6.0-UCCSD-O_953/BH-6.0-UCCSD-O.SHARKINP.tmp ... ok
----------------------
SHARK INTEGRAL PACKAGE
----------------------

Number of atoms                             ...      2
Number of basis functions                   ...    126
Number of shells                            ...     34
Maximum angular momentum                    ...      4
Integral batch strategy                     ... SHARK/LIBINT Hybrid
RI-J (if used) integral strategy            ... SPLIT-RIJ (Revised 2003 algorithm where possible)
Printlevel                                  ...      1
Contraction scheme used                     ... SEGMENTED contraction
Coulomb Range Separation                    ... NOT USED
Exchange Range Separation                   ... NOT USED
Finite Nucleus Model                        ... NOT USED
Auxiliary Coulomb fitting basis             ... NOT available
Auxiliary J/K fitting basis                 ... NOT available
Auxiliary Correlation fitting basis         ... NOT available
Auxiliary 'external' fitting basis          ... NOT available
Integral threshold                          ...     1.000000e-12
Primitive cut-off                           ...     1.000000e-14
Primitive pair pre-selection threshold      ...     1.000000e-14

Calculating pre-screening integrals         ... done (  0.1 sec) Dimension = 34
Organizing shell pair data                  ... done (  0.6 sec)
Shell pair information
Total number of shell pairs                 ...       595
Shell pairs after pre-screening             ...       535
Total number of primitive shell pairs       ...      1563
Primitive shell pairs kept                  ...      1267
          la=0 lb=0:     60 shell pairs
          la=1 lb=0:     89 shell pairs
          la=1 lb=1:     41 shell pairs
          la=2 lb=0:     69 shell pairs
          la=2 lb=1:     57 shell pairs
          la=2 lb=2:     25 shell pairs
          la=3 lb=0:     48 shell pairs
          la=3 lb=1:     41 shell pairs
          la=3 lb=2:     31 shell pairs
          la=3 lb=3:     14 shell pairs
          la=4 lb=0:     20 shell pairs
          la=4 lb=1:     16 shell pairs
          la=4 lb=2:     12 shell pairs
          la=4 lb=3:      9 shell pairs
          la=4 lb=4:      3 shell pairs

Calculating one electron integrals          ... done (  0.0 sec)
Calculating Nuclear repulsion               ... done (  0.0 sec) ENN=      0.440981006917 Eh

SHARK setup successfully completed in   0.7 seconds

Maximum memory used throughout the entire GTOINT-calculation: 29.8 MB
-------------------------------------------------------------------------------
                                 ORCA SCF
-------------------------------------------------------------------------------

------------
SCF SETTINGS
------------
Hamiltonian:
 Ab initio Hamiltonian  Method          .... Hartree-Fock(GTOs)


General Settings:
 Integral files         IntName         .... /scratch/BH-6.0-UCCSD-O_953/BH-6.0-UCCSD-O
 Hartree-Fock type      HFTyp           .... UHF
 Total Charge           Charge          ....    0
 Multiplicity           Mult            ....    1
 Number of Electrons    NEL             ....    6
 Basis Dimension        Dim             ....  126
 Nuclear Repulsion      ENuc            ....      0.4409810069 Eh

Convergence Acceleration:
 DIIS                   CNVDIIS         .... on
   Start iteration      DIISMaxIt       ....    12
   Startup error        DIISStart       ....  0.200000
   # of expansion vecs  DIISMaxEq       ....     5
   Bias factor          DIISBfac        ....   1.050
   Max. coefficient     DIISMaxC        ....  10.000
 Trust-Rad. Augm. Hess. CNVTRAH         .... auto
   Auto Start mean grad. ratio tolernc. ....  1.125000
   Auto Start start iteration           ....     1
   Auto Start num. interpolation iter.  ....    10
   Max. Number of Micro iterations      ....    16
   Max. Number of Macro iterations      .... Maxiter - #DIIS iter
   Number of Davidson start vectors     ....     2
   Converg. threshold I  (grad. norm)   ....   2.000e-06
   Converg. threshold II (energy diff.) ....   1.000e-09
   Grad. Scal. Fac. for Micro threshold ....   0.100
   Minimum threshold for Micro iter.    ....   0.010
   NR start threshold (gradient norm)   ....   0.001
   Initial trust radius                 ....   0.400
   Minimum AH scaling param. (alpha)    ....   1.000
   Maximum AH scaling param. (alpha)    .... 1000.000
   Orbital update algorithm             .... Taylor
   White noise on init. David. guess    .... on
   Maximum white noise                  ....   0.010
   Quad. conv. algorithm                .... NR
 SOSCF                  CNVSOSCF        .... off
 Level Shifting         CNVShift        .... on
   Level shift para.    LevelShift      ....    0.2500
   Turn off err/grad.   ShiftErr        ....    0.0010
 Zerner damping         CNVZerner       .... off
 Static damping         CNVDamp         .... on
   Fraction old density DampFac         ....    0.7000
   Max. Damping (<1)    DampMax         ....    0.9800
   Min. Damping (>=0)   DampMin         ....    0.0000
   Turn off err/grad.   DampErr         ....    0.1000
 Fernandez-Rico         CNVRico         .... off

SCF Procedure:
 Maximum # iterations   MaxIter         ....   125
 SCF integral mode      SCFMode         .... Direct
   Integral package                     .... SHARK and LIBINT hybrid scheme
 Reset frequency        DirectResetFreq ....    20
 Integral Threshold     Thresh          ....  1.000e-12 Eh
 Primitive CutOff       TCut            ....  1.000e-14 Eh

Convergence Tolerance:
 Convergence Check Mode ConvCheckMode   .... Total+1el-Energy
 Convergence forced     ConvForced      .... 1
 Energy Change          TolE            ....  1.000e-09 Eh
 1-El. energy change                    ....  1.000e-06 Eh
 DIIS Error             TolErr          ....  1.000e-08


Diagonalization of the overlap matrix:
Smallest eigenvalue                        ... 4.903e-03
Time for diagonalization                   ...    0.001 sec
Threshold for overlap eigenvalues          ... 1.000e-08
Number of eigenvalues below threshold      ... 0
Time for construction of square roots      ...    0.000 sec
Total time needed                          ...    0.002 sec

---------------------
INITIAL GUESS: MOREAD
---------------------
Guess MOs are being read from file: BH-6.0-UHF-O.gbw
Input Geometry matches current geometry (good)
Input basis set matches current basis set (good)
MOs were renormalized
MOs were reorthogonalized (Cholesky)
                      ------------------
                      INITIAL GUESS DONE (   0.0 sec)
                      ------------------
--------------
SCF ITERATIONS
--------------
ITER       Energy         Delta-E        Max-DP      RMS-DP      [F,P]     Damp
               ***  Starting incremental Fock matrix formation  ***
  0    -25.0329335906   0.000000000000 0.00000000  0.00000000  0.0000000 0.7000
                 **** Energy Check signals convergence ****

               *****************************************************
               *                     SUCCESS                       *
               *           SCF CONVERGED AFTER   1 CYCLES          *
               *****************************************************


----------------
TOTAL SCF ENERGY
----------------

Total Energy       :          -25.03293359 Eh            -681.18075 eV

Components:
Nuclear Repulsion  :            0.44098101 Eh              11.99970 eV
Electronic Energy  :          -25.47391460 Eh            -693.18046 eV
One Electron Energy:          -33.75149738 Eh            -918.42494 eV
Two Electron Energy:            8.27758278 Eh             225.24448 eV

Virial components:
Potential Energy   :          -50.06530528 Eh           -1362.34622 eV
Kinetic Energy     :           25.03237169 Eh             681.16546 eV
Virial Ratio       :            2.00002245


---------------
SCF CONVERGENCE
---------------

  Last Energy change         ...   -8.9173e-13  Tolerance :   1.0000e-09
  Last MAX-Density change    ...    5.4668e-10  Tolerance :   1.0000e-08
  Last RMS-Density change    ...    8.1622e-12  Tolerance :   1.0000e-09
  Last DIIS Error            ...    1.8751e-09  Tolerance :   1.0000e-08

             **** THE GBW FILE WAS UPDATED (/scratch/BH-6.0-UCCSD-O_953/BH-6.0-UCCSD-O.gbw) ****
             **** DENSITY /scratch/BH-6.0-UCCSD-O_953/BH-6.0-UCCSD-O.scfp WAS UPDATED ****
             **** ENERGY FILE WAS UPDATED (/scratch/BH-6.0-UCCSD-O_953/BH-6.0-UCCSD-O.en.tmp) ****
----------------------
UHF SPIN CONTAMINATION
----------------------

Expectation value of <S**2>     :     1.011308
Ideal value S*(S+1) for S=0.0   :     0.000000
Deviation                       :     1.011308

             **** THE GBW FILE WAS UPDATED (/scratch/BH-6.0-UCCSD-O_953/BH-6.0-UCCSD-O.gbw) ****
             **** DENSITY /scratch/BH-6.0-UCCSD-O_953/BH-6.0-UCCSD-O.scfp WAS UPDATED ****
----------------
ORBITAL ENERGIES
----------------
                 SPIN UP ORBITALS
  NO   OCC          E(Eh)            E(eV) 
   0   1.0000      -7.686315      -209.1553 
   1   1.0000      -0.498233       -13.5576 
   2   1.0000      -0.446248       -12.1430 
   3   0.0000       0.027448         0.7469 
   4   0.0000       0.027448         0.7469 
   5   0.0000       0.041916         1.1406 
   6   0.0000       0.050792         1.3821 
   7   0.0000       0.071435         1.9439 
   8   0.0000       0.084272         2.2932 
   9   0.0000       0.084272         2.2932 
  10   0.0000       0.120480         3.2784 
  11   0.0000       0.144350         3.9280 
  12   0.0000       0.145752         3.9661 
  13   0.0000       0.145752         3.9661 
  14   0.0000       0.146828         3.9954 
  15   0.0000       0.146828         3.9954 
  16   0.0000       0.180922         4.9231 
  17   0.0000       0.180922         4.9231 
  18   0.0000       0.227871         6.2007 
  19   0.0000       0.320554         8.7227 
  20   0.0000       0.320554         8.7227 
  21   0.0000       0.353926         9.6308 
  22   0.0000       0.361358         9.8331 
  23   0.0000       0.369241        10.0475 
  24   0.0000       0.461809        12.5664 
  25   0.0000       0.461809        12.5664 
  26   0.0000       0.471154        12.8208 
  27   0.0000       0.471154        12.8208 
  28   0.0000       0.476965        12.9789 
  29   0.0000       0.476965        12.9789 
  30   0.0000       0.481308        13.0970 
  31   0.0000       0.501699        13.6519 
  32   0.0000       0.501699        13.6519 
  33   0.0000       0.523254        14.2385 
  34   0.0000       0.523254        14.2385 
  35   0.0000       0.542387        14.7591 
  36   0.0000       0.614864        16.7313 
  37   0.0000       0.614864        16.7313 
  38   0.0000       0.618607        16.8332 
  39   0.0000       0.618607        16.8332 
  40   0.0000       0.633214        17.2306 
  41   0.0000       0.746384        20.3102 
  42   0.0000       0.746384        20.3102 
  43   0.0000       0.787778        21.4365 
  44   0.0000       1.060408        28.8552 
  45   0.0000       1.060408        28.8552 
  46   0.0000       1.107591        30.1391 
  47   0.0000       1.369745        37.2727 
  48   0.0000       1.369745        37.2727 
  49   0.0000       1.384462        37.6731 
  50   0.0000       1.384462        37.6731 
  51   0.0000       1.394909        37.9574 
  52   0.0000       1.394909        37.9574 
  53   0.0000       1.401526        38.1375 
  54   0.0000       1.401526        38.1375 
  55   0.0000       1.403765        38.1984 
  56   0.0000       1.415968        38.5305 
  57   0.0000       1.415968        38.5305 
  58   0.0000       1.424879        38.7729 
  59   0.0000       1.439789        39.1787 
  60   0.0000       1.439789        39.1787 
  61   0.0000       1.453821        39.5605 
  62   0.0000       1.453821        39.5605 
  63   0.0000       1.463722        39.8299 
  64   0.0000       1.463722        39.8299 
  65   0.0000       1.476500        40.1776 
  66   0.0000       1.478936        40.2439 
  67   0.0000       1.478936        40.2439 
  68   0.0000       1.491687        40.5909 
  69   0.0000       1.560347        42.4592 
  70   0.0000       1.560347        42.4592 
  71   0.0000       1.560508        42.4636 
  72   0.0000       1.560508        42.4636 
  73   0.0000       1.561091        42.4794 
  74   0.0000       1.561091        42.4794 
  75   0.0000       1.562764        42.5250 
  76   0.0000       1.584358        43.1126 
  77   0.0000       2.449499        66.6543 
  78   0.0000       2.449499        66.6543 
  79   0.0000       2.450738        66.6880 
  80   0.0000       2.450738        66.6880 
  81   0.0000       2.455714        66.8234 
  82   0.0000       2.548507        69.3484 
  83   0.0000       2.548507        69.3484 
  84   0.0000       2.577399        70.1346 
  85   0.0000       3.744421       101.8909 
  86   0.0000       3.744421       101.8909 
  87   0.0000       3.789317       103.1126 
  88   0.0000       3.920367       106.6786 
  89   0.0000       3.920367       106.6786 
  90   0.0000       3.945700       107.3680 
  91   0.0000       3.945700       107.3680 
  92   0.0000       3.960514       107.7711 
  93   0.0000       3.960514       107.7711 
  94   0.0000       3.964975       107.8924 
  95   0.0000       3.964975       107.8924 
  96   0.0000       3.975054       108.1667 
  97   0.0000       3.975054       108.1667 
  98   0.0000       3.978855       108.2702 
  99   0.0000       4.001205       108.8783 
 100   0.0000       4.001205       108.8783 
 101   0.0000       4.023611       109.4880 
 102   0.0000       4.088777       111.2613 
 103   0.0000       4.088777       111.2613 
 104   0.0000       4.121429       112.1498 
 105   0.0000       4.121429       112.1498 
 106   0.0000       4.141886       112.7065 
 107   0.0000       4.141886       112.7065 
 108   0.0000       4.151402       112.9654 
 109   0.0000       6.552751       178.3094 
 110   0.0000       6.552751       178.3094 
 111   0.0000       6.552797       178.3107 
 112   0.0000       6.552797       178.3107 
 113   0.0000       6.552912       178.3138 
 114   0.0000       6.552912       178.3138 
 115   0.0000       6.553171       178.3209 
 116   0.0000       7.390137       201.0959 
 117   0.0000       7.928696       215.7508 
 118   0.0000       7.928696       215.7508 
 119   0.0000       7.949487       216.3165 
 120   0.0000       8.388366       228.2590 
 121   0.0000       8.388366       228.2590 
 122   0.0000       8.389045       228.2775 
 123   0.0000       8.389045       228.2775 
 124   0.0000       8.392955       228.3839 
 125   0.0000      13.050150       355.1126 

                 SPIN DOWN ORBITALS
  NO   OCC          E(Eh)            E(eV) 
   0   1.0000      -7.701463      -209.5675 
   1   1.0000      -0.545301       -14.8384 
   2   1.0000      -0.318772        -8.6742 
   3   0.0000       0.016303         0.4436 
   4   0.0000       0.023664         0.6439 
   5   0.0000       0.023664         0.6439 
   6   0.0000       0.052516         1.4290 
   7   0.0000       0.065876         1.7926 
   8   0.0000       0.077278         2.1028 
   9   0.0000       0.077278         2.1028 
  10   0.0000       0.114471         3.1149 
  11   0.0000       0.144860         3.9418 
  12   0.0000       0.144860         3.9418 
  13   0.0000       0.145674         3.9640 
  14   0.0000       0.145674         3.9640 
  15   0.0000       0.145974         3.9722 
  16   0.0000       0.197728         5.3805 
  17   0.0000       0.197728         5.3805 
  18   0.0000       0.239478         6.5165 
  19   0.0000       0.276148         7.5144 
  20   0.0000       0.312404         8.5009 
  21   0.0000       0.312404         8.5009 
  22   0.0000       0.345156         9.3922 
  23   0.0000       0.461884        12.5685 
  24   0.0000       0.461884        12.5685 
  25   0.0000       0.464019        12.6266 
  26   0.0000       0.467113        12.7108 
  27   0.0000       0.467113        12.7108 
  28   0.0000       0.470389        12.7999 
  29   0.0000       0.470389        12.7999 
  30   0.0000       0.479318        13.0429 
  31   0.0000       0.492779        13.4092 
  32   0.0000       0.492779        13.4092 
  33   0.0000       0.500592        13.6218 
  34   0.0000       0.500592        13.6218 
  35   0.0000       0.511198        13.9104 
  36   0.0000       0.628267        17.0960 
  37   0.0000       0.628267        17.0960 
  38   0.0000       0.631564        17.1857 
  39   0.0000       0.631564        17.1857 
  40   0.0000       0.645521        17.5655 
  41   0.0000       0.813395        22.1336 
  42   0.0000       0.813395        22.1336 
  43   0.0000       0.848808        23.0972 
  44   0.0000       1.027689        27.9648 
  45   0.0000       1.051028        28.5999 
  46   0.0000       1.051028        28.5999 
  47   0.0000       1.370024        37.2802 
  48   0.0000       1.370024        37.2802 
  49   0.0000       1.379303        37.5327 
  50   0.0000       1.379303        37.5327 
  51   0.0000       1.385943        37.7134 
  52   0.0000       1.385943        37.7134 
  53   0.0000       1.389117        37.7998 
  54   0.0000       1.389844        37.8196 
  55   0.0000       1.389844        37.8196 
  56   0.0000       1.391989        37.8780 
  57   0.0000       1.404918        38.2298 
  58   0.0000       1.404918        38.2298 
  59   0.0000       1.411078        38.3974 
  60   0.0000       1.411078        38.3974 
  61   0.0000       1.425755        38.7968 
  62   0.0000       1.439142        39.1611 
  63   0.0000       1.439142        39.1611 
  64   0.0000       1.447441        39.3869 
  65   0.0000       1.447441        39.3869 
  66   0.0000       1.452606        39.5274 
  67   0.0000       1.452606        39.5274 
  68   0.0000       1.460954        39.7546 
  69   0.0000       1.572922        42.8014 
  70   0.0000       1.572922        42.8014 
  71   0.0000       1.573077        42.8056 
  72   0.0000       1.573077        42.8056 
  73   0.0000       1.573588        42.8195 
  74   0.0000       1.573588        42.8195 
  75   0.0000       1.574967        42.8570 
  76   0.0000       1.697331        46.1867 
  77   0.0000       2.488982        67.7286 
  78   0.0000       2.488982        67.7286 
  79   0.0000       2.490195        67.7617 
  80   0.0000       2.490195        67.7617 
  81   0.0000       2.495459        67.9049 
  82   0.0000       2.623498        71.3890 
  83   0.0000       2.623498        71.3890 
  84   0.0000       2.650855        72.1334 
  85   0.0000       3.737236       101.6954 
  86   0.0000       3.737236       101.6954 
  87   0.0000       3.738936       101.7416 
  88   0.0000       3.919674       106.6598 
  89   0.0000       3.919674       106.6598 
  90   0.0000       3.934801       107.0714 
  91   0.0000       3.934801       107.0714 
  92   0.0000       3.945609       107.3655 
  93   0.0000       3.945609       107.3655 
  94   0.0000       3.952103       107.5422 
  95   0.0000       3.952103       107.5422 
  96   0.0000       3.954485       107.6070 
  97   0.0000       3.956018       107.6487 
  98   0.0000       3.956018       107.6487 
  99   0.0000       3.964572       107.8815 
 100   0.0000       3.964572       107.8815 
 101   0.0000       3.975970       108.1916 
 102   0.0000       4.086092       111.1882 
 103   0.0000       4.086092       111.1882 
 104   0.0000       4.099977       111.5660 
 105   0.0000       4.099977       111.5660 
 106   0.0000       4.108520       111.7985 
 107   0.0000       4.108520       111.7985 
 108   0.0000       4.113947       111.9462 
 109   0.0000       6.581596       179.0943 
 110   0.0000       6.581596       179.0943 
 111   0.0000       6.581639       179.0955 
 112   0.0000       6.581639       179.0955 
 113   0.0000       6.581753       179.0986 
 114   0.0000       6.581753       179.0986 
 115   0.0000       6.582010       179.1056 
 116   0.0000       7.472201       203.3289 
 117   0.0000       7.986697       217.3291 
 118   0.0000       7.986697       217.3291 
 119   0.0000       8.007263       217.8887 
 120   0.0000       8.430605       229.4084 
 121   0.0000       8.430605       229.4084 
 122   0.0000       8.431278       229.4267 
 123   0.0000       8.431278       229.4267 
 124   0.0000       8.435164       229.5325 
 125   0.0000      13.038359       354.7918 

                    ********************************
                    * MULLIKEN POPULATION ANALYSIS *
                    ********************************

--------------------------------------------
MULLIKEN ATOMIC CHARGES AND SPIN POPULATIONS
--------------------------------------------
   0 B :    0.000060   -0.999930
   1 H :   -0.000060    0.999930
Sum of atomic charges         :    0.0000000
Sum of atomic spin populations:    0.0000000

-----------------------------------------------------
MULLIKEN REDUCED ORBITAL CHARGES AND SPIN POPULATIONS
-----------------------------------------------------
CHARGE
  0 B s       :     3.994890  s :     3.994890
      pz      :     0.000000  p :     0.999965
      px      :     0.999965
      py      :     0.000000
      dz2     :     0.001267  d :     0.005069
      dxz     :     0.000000
      dyz     :     0.000000
      dx2y2   :     0.003802
      dxy     :     0.000000
      f0      :     0.000000  f :     0.000016
      f+1     :     0.000006
      f-1     :     0.000000
      f+2     :     0.000000
      f-2     :     0.000000
      f+3     :     0.000010
      f-3     :     0.000000
      g0      :     0.000000  g :     0.000000
      g+1     :     0.000000
      g-1     :     0.000000
      g+2     :     0.000000
      g-2     :     0.000000
      g+3     :     0.000000
      g-3     :     0.000000
      g+4     :     0.000000
      g-4     :     0.000000
  1 H s       :     1.000041  s :     1.000041
      pz      :     0.000000  p :     0.000018
      px      :     0.000018
      py      :     0.000000
      dz2     :     0.000000  d :     0.000001
      dxz     :     0.000000
      dyz     :     0.000000
      dx2y2   :     0.000001
      dxy     :     0.000000
      f0      :     0.000000  f :    -0.000000
      f+1     :    -0.000000
      f-1     :     0.000000
      f+2     :     0.000000
      f-2     :     0.000000
      f+3     :    -0.000000
      f-3     :     0.000000

SPIN
  0 B s       :     0.001054  s :     0.001054
      pz      :    -0.000000  p :    -0.999915
      px      :    -0.999915
      py      :    -0.000000
      dz2     :    -0.000263  d :    -0.001053
      dxz     :    -0.000000
      dyz     :    -0.000000
      dx2y2   :    -0.000790
      dxy     :    -0.000000
      f0      :    -0.000000  f :    -0.000016
      f+1     :    -0.000006
      f-1     :    -0.000000
      f+2     :    -0.000000
      f-2     :     0.000000
      f+3     :    -0.000010
      f-3     :    -0.000000
      g0      :     0.000000  g :     0.000000
      g+1     :     0.000000
      g-1     :     0.000000
      g+2     :     0.000000
      g-2     :     0.000000
      g+3     :     0.000000
      g-3     :    -0.000000
      g+4     :     0.000000
      g-4     :     0.000000
  1 H s       :     0.999940  s :     0.999940
      pz      :     0.000000  p :    -0.000010
      px      :    -0.000010
      py      :     0.000000
      dz2     :    -0.000000  d :    -0.000000
      dxz     :    -0.000000
      dyz     :    -0.000000
      dx2y2   :    -0.000000
      dxy     :    -0.000000
      f0      :     0.000000  f :     0.000000
      f+1     :     0.000000
      f-1     :     0.000000
      f+2     :     0.000000
      f-2     :     0.000000
      f+3     :     0.000000
      f-3     :    -0.000000


                     *******************************
                     * LOEWDIN POPULATION ANALYSIS *
                     *******************************

-------------------------------------------
LOEWDIN ATOMIC CHARGES AND SPIN POPULATIONS
-------------------------------------------
   0 B :   -0.001389   -0.998114
   1 H :    0.001389    0.998114

----------------------------------------------------
LOEWDIN REDUCED ORBITAL CHARGES AND SPIN POPULATIONS
----------------------------------------------------
CHARGE
  0 B s       :     3.994796  s :     3.994796
      pz      :     0.000000  p :     1.001294
      px      :     1.001294
      py      :     0.000000
      dz2     :     0.001321  d :     0.005282
      dxz     :     0.000000
      dyz     :     0.000000
      dx2y2   :     0.003962
      dxy     :     0.000000
      f0      :     0.000000  f :     0.000017
      f+1     :     0.000006
      f-1     :     0.000000
      f+2     :     0.000000
      f-2     :     0.000000
      f+3     :     0.000011
      f-3     :     0.000000
      g0      :     0.000000  g :     0.000000
      g+1     :     0.000000
      g-1     :     0.000000
      g+2     :     0.000000
      g-2     :     0.000000
      g+3     :     0.000000
      g-3     :     0.000000
      g+4     :     0.000000
      g-4     :     0.000000
  1 H s       :     0.998573  s :     0.998573
      pz      :     0.000000  p :     0.000034
      px      :     0.000034
      py      :     0.000000
      dz2     :     0.000001  d :     0.000003
      dxz     :     0.000000
      dyz     :     0.000000
      dx2y2   :     0.000002
      dxy     :     0.000000
      f0      :     0.000000  f :     0.000000
      f+1     :     0.000000
      f-1     :     0.000000
      f+2     :     0.000000
      f-2     :     0.000000
      f+3     :     0.000000
      f-3     :     0.000000

SPIN
  0 B s       :     0.001064  s :     0.001064
      pz      :    -0.000000  p :    -0.998306
      px      :    -0.998306
      py      :    -0.000000
      dz2     :    -0.000214  d :    -0.000858
      dxz     :    -0.000000
      dyz     :    -0.000000
      dx2y2   :    -0.000643
      dxy     :    -0.000000
      f0      :    -0.000000  f :    -0.000016
      f+1     :    -0.000006
      f-1     :    -0.000000
      f+2     :    -0.000000
      f-2     :     0.000000
      f+3     :    -0.000010
      f-3     :    -0.000000
      g0      :     0.000000  g :     0.000000
      g+1     :     0.000000
      g-1     :     0.000000
      g+2     :     0.000000
      g-2     :     0.000000
      g+3     :     0.000000
      g-3     :    -0.000000
      g+4     :     0.000000
      g-4     :     0.000000
  1 H s       :     0.998126  s :     0.998126
      pz      :     0.000000  p :    -0.000010
      px      :    -0.000010
      py      :     0.000000
      dz2     :    -0.000000  d :    -0.000002
      dxz     :    -0.000000
      dyz     :    -0.000000
      dx2y2   :    -0.000001
      dxy     :    -0.000000
      f0      :    -0.000000  f :    -0.000000
      f+1     :    -0.000000
      f-1     :     0.000000
      f+2     :    -0.000000
      f-2     :    -0.000000
      f+3     :    -0.000000
      f-3     :    -0.000000


                      *****************************
                      * MAYER POPULATION ANALYSIS *
                      *****************************

  NA   - Mulliken gross atomic population
  ZA   - Total nuclear charge
  QA   - Mulliken gross atomic charge
  VA   - Mayer's total valence
  BVA  - Mayer's bonded valence
  FA   - Mayer's free valence

  ATOM       NA         ZA         QA         VA         BVA        FA
  0 B      4.9999     5.0000     0.0001     1.0228     0.0002     1.0226
  1 H      1.0001     1.0000    -0.0001     1.0002     0.0002     0.9999

  Mayer bond orders larger than 0.100000


-------
TIMINGS
-------

Total SCF time: 0 days 0 hours 0 min 0 sec 

Total time                  ....       0.826 sec
Sum of individual times     ....       0.708 sec  ( 85.6%)

Fock matrix formation       ....       0.693 sec  ( 83.9%)
Diagonalization             ....       0.006 sec  (  0.7%)
Density matrix formation    ....       0.000 sec  (  0.0%)
Population analysis         ....       0.003 sec  (  0.3%)
Initial guess               ....       0.005 sec  (  0.6%)
Orbital Transformation      ....       0.000 sec  (  0.0%)
Orbital Orthonormalization  ....       0.003 sec  (  0.3%)
DIIS solution               ....       0.001 sec  (  0.1%)

Maximum memory used throughout the entire SCF-calculation: 254.0 MB


------------------------------------------------------------------------------- 
                              ORCA-MATRIX DRIVEN CI                            
------------------------------------------------------------------------------- 

--------------------------------
AUTOMATIC CHOICE OF INCORE LEVEL
--------------------------------

Memory available                           ...    256.00 MB
Memory needed for S+T                      ...      1.04 MB
Memory needed for J+K                      ...      2.08 MB
Memory needed for DIIS                     ...     14.54 MB
Memory needed for 3-ext                    ...     28.39 MB
Memory needed for 4-ext                    ...    880.23 MB
Memory needed for triples                  ...      0.00 MB
 -> Final InCoreLevel    ... 4

Wavefunction type
-----------------
Correlation treatment                      ...      CCSD     
Single excitations                         ... ON
Orbital optimization                       ... OFF
Calculation of Z vector                    ... OFF
Calculation of Brueckner orbitals          ... OFF
Perturbative triple excitations            ... OFF
Calculation of F12 correction              ... OFF
Frozen core treatment                      ... chemical core (2 el)
Reference Wavefunction                     ... UHF
  Alpha-MOs occ    :     1 ...    2 (  2 MO's/  2 electrons)
  Beta-MOs occ     :     1 ...    2 (  2 MO's/  2 electrons)
  Alpha-MOs virt   :     3 ...  125 (123 MO's              )
  Beta-MOs virt    :     3 ...  125 (123 MO's              )
Number of AO's                             ...    126
Number of electrons                        ...      6
Number of correlated electrons             ...      4

Algorithmic settings
--------------------
Integral transformation                    ... AO direct full transformation
K(C) Formation                             ... FULL-MO TRAFO
Maximum number of iterations               ...        50
Convergence tolerance (max. residuum)      ... 1.000e-06
Level shift for amplitude update           ... 2.000e-01
Maximum number of DIIS vectors             ...         7
DIIS turned on at iteration                ...         0
Damping before turning on DIIS             ...     0.500
Damping after turning on DIIS              ...     0.000
Pair specific amplitude update             ... OFF
Natural orbital iterations                 ... OFF
Perturbative natural orbital generation    ... OFF
Printlevel                                 ... 2

Memory handling:
----------------
Maximum memory for working arrays          ...    256 MB
Data storage in matrix containers          ... UNCOMPRESSED
Data type for integral storage             ... DOUBLE
In-Core Storage of quantities:
   Amplitudes+Sigma Vector      ... YES
   J+K operators                ... YES
   DIIS vectors                 ... YES
   3-external integrals         ... YES
   4-external integrals         ... NO


Initializing the integral package          ... done
Warning: reference  - re-canonicalizations have been set to INT 1 VIRT 1

--------------------------
UNRESTRICTED FOCK OPERATOR
--------------------------

Restoring SHARK [2] ... ok
Recanonicalizing the internal orbitals
Recanonicalizing the virtual orbitals
Time needed for Fock operator              ...            0.802 sec
Reference energy                           ...    -25.032933591
Warning: for UHF the TrafoType has to be JK
Warning: for UHF the K(C)-option but must be AOX

-------------------------------
PARTIAL EXCHANGE TRANSFORMATION
-------------------------------

Transformation type                        ... two-operators
Generation of integrals (i,mue|j,nue)      ... ON
Generation of integrals (mue,kappa|nue,tau)... ON
Generation of integrals (i,mue|a,nue)      ... ON
Dimension of the basis                     ...  126
Number of internal alpha-MOs               ...    2 (   1-   2)
Number of internal beta-MOs                ...    2 (   1-   2)
Number of external alpha-MOs               ...  123 (   3- 125)
Number of external beta-MOs                ...  123 (   3- 125)
Pair cutoff                                ... 0.000e+00 Eh
Number of AO pairs in the trafo            ... 8001
Total Number of distinct AO pairs          ... 8001
Memory devoted for trafo                   ...  256.0 MB 
Max. Number of MO pairs treated together   ... 2113      
Number Format for Storage                  ... Double (8 Byte)
Integral package used                      ... LIBINT

Starting integral evaluation:
    ... done with AO integral generation
Closing buffer AOK[aa] ( 0.00 GB; CompressionRatio= 0.73)
Closing buffer AOK[bb] ( 0.00 GB; CompressionRatio= 0.73)
Closing buffer AOK[ab] ( 0.00 GB; CompressionRatio= 0.73)
Closing buffer AOK[ba] ( 0.00 GB; CompressionRatio= 0.73)
Collecting buffer AOK 
Closing buffer IAAO1[aa] ( 0.01 GB; CompressionRatio= 0.99)
Closing buffer IAAO1[bb] ( 0.01 GB; CompressionRatio= 0.99)
Closing buffer IAAO1[ab] ( 0.01 GB; CompressionRatio= 0.99)
Closing buffer IAAO1[ba] ( 0.01 GB; CompressionRatio= 0.99)
Closing buffer IAAO2[aa] ( 0.01 GB; CompressionRatio= 0.99)
Closing buffer IAAO2[bb] ( 0.01 GB; CompressionRatio= 0.99)
Closing buffer IAAO2[ab] ( 0.01 GB; CompressionRatio= 0.99)
Closing buffer IAAO2[ba] ( 0.01 GB; CompressionRatio= 0.99)
Collecting buffer IAAO 
Closing buffer PRQS    ( 0.95 GB; CompressionRatio= 1.00)
Collecting buffer PRQS 
Number of alpha/alpha MO pairs in trafo    ...    3
Number of beta /beta  MO pairs in trafo    ...    3
Number of alpha/ beta MO pairs in trafo    ...    4
------------------------
SORTING OF (i,mue|j,nue)
------------------------

SORTING OF ALPHA/ALPHA PAIRS
IBATCH = 1 of  1
Closing buffer KAO[aa] ( 0.00 GB; CompressionRatio= 1.00)
Collecting buffer KAO 
SORTING OF BETA /BETA  PAIRS
IBATCH = 1 of  1
Closing buffer KAO[bb] ( 0.00 GB; CompressionRatio= 1.00)
Collecting buffer KAO 
SORTING OF ALPHA/BETA  PAIRS
IBATCH = 1 of  1
Closing buffer KAO[ab] ( 0.00 GB; CompressionRatio= 0.999905526689)
Collecting buffer KAO[ab] 
------------------------
SORTING OF (i,mue|a,nue)
------------------------

Number of alpha/alpha (i,a) pairs in trafo  ...  246
Number of beta /beta  (i,a) pairs in trafo  ...  246
Number of alpha/ beta (i,a) pairs in trafo  ...  246
Number of beta /alpha (i,a) pairs in trafo  ...  246
Setting up the alpha/alpha list             ... done
Setting up the beta /beta  list             ... done
Setting up the alpha/beta  list             ... done
Setting up the beta /alpha list             ... done
    ... Now sorting (i,mue|a,nue)integrals
    ... Integrals (i,b|a,c) will be made on the fly
SORTING OF ALPHA/ALPHA PAIRS
IBATCH = 1 of  1
Closing buffer IPAQ[aa]  0.03 GB; CompressionRatio= 1.00)
SORTING OF BETA /BETA  PAIRS
IBATCH = 1 of  1
Closing buffer IPAQ[bb]( 0.03 GB; CompressionRatio= 1.00)
SORTING OF ALPHA/BETA  PAIRS (NMatSort_ab=246)
IBATCH = 1 of  1
Closing buffer IPAQ[ab]( 0.03 GB; CompressionRatio= 1.00)
SORTING OF BETA/ALPHA  PAIRS
IBATCH = 1 of  1
Closing buffer IPAQ[ba]( 0.03 GB; CompressionRatio= 1.00)
N(AO-Batches) Done                         ...    527416 
N(AO-Batches) Skipped                      ...         0 
N(IJ)-pairs Skipped                        ...         0 
TOTAL TIME for half transformation         ...    11.227 sec
AO-integral generation                     ...     2.811 sec
Half transformation                        ...     1.114 sec
K-integral sorting                         ...     0.426 sec

------------------------------
PARTIAL COULOMB TRANSFORMATION
------------------------------

Transformation type                        ... two-operators
Dimension of the basis                     ...  126
Number of internal alpha-MOs               ...    2 (1-2)
Number of internal beta-MOs                ...    2 (1-2)
Pair cutoff                                ... 0.000e+00 Eh
Number of AO pairs included in the trafo   ... 8001
Total Number of distinct AO pairs          ... 8001
Memory devoted for trafo                   ...  256.0 MB 
Max. Number of MO pairs treated together   ... 4193      
Max. Number of MOs treated per batch       ...   33      
Number Format for Storage                  ... Double (8 Byte)
AO-integral source                         ... DIRECT
Integral package used                      ... LIBINT

Starting integral evaluation:
<ss|**>:        30334 b        0 skpd     0.048 s (  0.002 ms/b)
<sp|**>:        45501 b        0 skpd     0.068 s (  0.001 ms/b)
<sd|**>:        35041 b        0 skpd     0.089 s (  0.003 ms/b)
<sf|**>:        24581 b        0 skpd     0.110 s (  0.004 ms/b)
<sg|**>:        10460 b        0 skpd     0.092 s (  0.009 ms/b)
<pp|**>:        20920 b        0 skpd     0.060 s (  0.003 ms/b)
<pd|**>:        28765 b        0 skpd     0.144 s (  0.005 ms/b)
<pf|**>:        20397 b        0 skpd     0.166 s (  0.008 ms/b)
<pg|**>:         8368 b        0 skpd     0.111 s (  0.013 ms/b)
<dd|**>:        13075 b        0 skpd     0.120 s (  0.009 ms/b)
<df|**>:        16213 b        0 skpd     0.242 s (  0.015 ms/b)
<dg|**>:         6276 b        0 skpd     0.140 s (  0.022 ms/b)
<ff|**>:         7322 b        0 skpd     0.197 s (  0.027 ms/b)
<fg|**>:         4707 b        0 skpd     0.190 s (  0.040 ms/b)
<gg|**>:         1569 b        0 skpd     0.104 s (  0.066 ms/b)
Closing buffer AOJ[aa] ( 0.00 GB; CompressionRatio= 0.67)
Closing buffer AOJ[bb] ( 0.00 GB; CompressionRatio= 0.67)
Collecting buffer AOJ 
    ... done with AO integral generation
Number of Alpha-MO pairs included          ...    3
Number of Beta-MO pairs included           ...    3
    ... Now sorting integrals
SORTING ALPHA/ALPHA PAIRS
IBATCH = 1 of  1
Closing buffer JAO[aa] ( 0.00 GB; CompressionRatio= 1.00)
SORTING BETA/BETA PAIRS
IBATCH = 1 of  1
Closing buffer JAO[bb] ( 0.00 GB; CompressionRatio= 1.00)
Collecting buffer JAO 
TOTAL TIME for half transformation         ...     1.892 sec
AO-integral generation                     ...     1.527 sec
Half transformation                        ...     0.358 sec
J-integral sorting                         ...     0.005 sec

-------------------------- SECOND HALF TRANSFORMATION -------------------------
Formation of (ij|kl),(ij|ka), (ij|ab)      ... ok (     0.005 sec)
Formation of (ik|jl),(ik|ja), (ia|jb)      ... ok (     0.005 sec)


-----------------------
SPIN UNRESTRICTED GUESS
-----------------------

Spin-components of the MP2 energy:
EMP2(aa)=     -0.000003759
EMP2(bb)=     -0.003426625
EMP2(ab)=     -0.043827597

Initial guess performed in     0.001 sec
E(0)                                       ...    -25.032933591
E(MP2)                                     ...     -0.047257981
Initial E(tot)                             ...    -25.080191572
<T|T>                                      ...      0.026711233
Number of pairs included                   ... 6

------------------------------------------------
                  UHF COUPLED CLUSTER ITERATIONS
------------------------------------------------

Number of amplitudes to be optimized       ...        75890

Iter       E(tot)           E(Corr)          Delta-E          Residual     Time      <S|S>**1/2
  0    -25.080191572     -0.047257981      0.000000000      0.017483046    0.92      0.000000002
                           *** Turning on DIIS ***
  1    -25.089278214     -0.056344624     -0.009086643      0.010707496    1.59      0.009934275
  2    -25.097130378     -0.064196788     -0.007852164      0.003433915    1.63      0.020321812
  3    -25.099183019     -0.066249428     -0.002052641      0.000698985    1.61      0.024764544
  4    -25.099393562     -0.066459972     -0.000210543      0.000160241    1.64      0.025752320
  5    -25.099451927     -0.066518337     -0.000058365      0.000039218    1.62      0.025954829
  6    -25.099446927     -0.066513336      0.000005000      0.000013574    1.64      0.025951640
  7    -25.099448558     -0.066514967     -0.000001631      0.000003853    1.62      0.025948574
  8    -25.099448132     -0.066514542      0.000000426      0.000001478    1.61      0.025946398
  9    -25.099448179     -0.066514588     -0.000000047      0.000001097    1.60      0.025946839
 10    -25.099448153     -0.066514562      0.000000026      0.000000863    1.61      0.025947085
               --- The Coupled-Cluster iterations have converged ---

----------------------
COUPLED CLUSTER ENERGY
----------------------

E(0)                                       ...    -25.032933591
E(CORR)                                    ...     -0.066514562
E(TOT)                                     ...    -25.099448153
Singles norm <S|S>**1/2                    ...      0.025947085 ( 0.011693897, 0.014253188)  
T1 diagnostic                              ...      0.012973542                              

------------------
LARGEST AMPLITUDES
------------------
   2a->  8a   1b->  9b       0.070123
   2a->  9a   1b->  8b       0.070123
   2a->  8a   1b->  4b       0.062690
   2a->  9a   1b->  5b       0.062690
   2a->  3a   1b->  8b       0.046278
   2a->  4a   1b->  9b       0.046278
   2a->  8a   1b-> 21b       0.040446
   2a->  9a   1b-> 20b       0.040446
   2a-> 20a   1b->  5b       0.036083
   2a-> 19a   1b->  4b       0.036083
   2a->  3a   1b->  5b       0.034976
   2a->  4a   1b->  4b       0.034976
   2a-> 20a   1b->  8b       0.034474
   2a-> 19a   1b->  9b       0.034474
   2a-> 10a   2b-> 35b       0.033326
   2a-> 20a   1b-> 20b       0.033093



        !!!!!!!!!!!!!!!!!!!!!!!!!!!!!!!!!!!!!!!!!!!!!!!!!!!!!!!!!!!!!!!!!!!!!!!!!! 
        !  Warning: Densities are linearized densities                           !
        !!!!!!!!!!!!!!!!!!!!!!!!!!!!!!!!!!!!!!!!!!!!!!!!!!!!!!!!!!!!!!!!!!!!!!!!!! 

NORM  =      1.072795522 sqrt=     1.035758428
W(HF) =      0.932144085
------------------------------------------------------------------------------
                           ORCA POPULATION ANALYSIS
------------------------------------------------------------------------------
Input electron density              ... /scratch/BH-6.0-UCCSD-O_953/BH-6.0-UCCSD-O.mdcip
Input spin density                  ... /scratch/BH-6.0-UCCSD-O_953/BH-6.0-UCCSD-O.mdcir
BaseName (.gbw .S,...)              ... /scratch/BH-6.0-UCCSD-O_953/BH-6.0-UCCSD-O

                    ********************************
                    * MULLIKEN POPULATION ANALYSIS *
                    ********************************

------------------------------------------
MULLIKEN ATOMIC CHARGES AND SPIN DENSITIES
------------------------------------------
   0 B :    0.000047   -0.999927
   1 H :   -0.000047    0.999927
Sum of atomic charges       :    0.0000000
Sum of atomic spin densities:   -0.0000000

---------------------------------------------------
MULLIKEN REDUCED ORBITAL CHARGES AND SPIN DENSITIES
---------------------------------------------------
CHARGE
  0 B s       :     3.883149  s :     3.883149
      pz      :     0.052000  p :     1.094786
      px      :     0.990786
      py      :     0.052000
      dz2     :     0.002186  d :     0.021119
      dxz     :     0.006303
      dyz     :     0.000230
      dx2y2   :     0.006098
      dxy     :     0.006303
      f0      :     0.000079  f :     0.000799
      f+1     :     0.000139
      f-1     :     0.000030
      f+2     :     0.000118
      f-2     :     0.000100
      f+3     :     0.000166
      f-3     :     0.000167
      g0      :     0.000008  g :     0.000100
      g+1     :     0.000013
      g-1     :     0.000004
      g+2     :     0.000010
      g-2     :     0.000010
      g+3     :     0.000012
      g-3     :     0.000012
      g+4     :     0.000015
      g-4     :     0.000015
  1 H s       :     1.000005  s :     1.000005
      pz      :     0.000003  p :     0.000040
      px      :     0.000034
      py      :     0.000003
      dz2     :     0.000000  d :     0.000002
      dxz     :     0.000000
      dyz     :     0.000000
      dx2y2   :     0.000001
      dxy     :     0.000000
      f0      :     0.000000  f :     0.000000
      f+1     :     0.000000
      f-1     :     0.000000
      f+2     :     0.000000
      f-2     :     0.000000
      f+3     :     0.000000
      f-3     :     0.000000

SPIN
  0 B s       :    -0.017028  s :    -0.017028
      pz      :     0.001832  p :    -0.972950
      px      :    -0.976614
      py      :     0.001832
      dz2     :    -0.000964  d :    -0.009520
      dxz     :    -0.002822
      dyz     :     0.000022
      dx2y2   :    -0.002936
      dxy     :    -0.002822
      f0      :    -0.000035  f :    -0.000391
      f+1     :    -0.000071
      f-1     :    -0.000004
      f+2     :    -0.000059
      f-2     :    -0.000044
      f+3     :    -0.000089
      f-3     :    -0.000089
      g0      :    -0.000003  g :    -0.000037
      g+1     :    -0.000005
      g-1     :    -0.000001
      g+2     :    -0.000004
      g-2     :    -0.000003
      g+3     :    -0.000005
      g-3     :    -0.000005
      g+4     :    -0.000006
      g-4     :    -0.000006
  1 H s       :     0.999922  s :     0.999922
      pz      :     0.000003  p :     0.000005
      px      :    -0.000001
      py      :     0.000003
      dz2     :    -0.000000  d :    -0.000000
      dxz     :     0.000000
      dyz     :     0.000000
      dx2y2   :    -0.000000
      dxy     :     0.000000
      f0      :     0.000000  f :     0.000000
      f+1     :     0.000000
      f-1     :     0.000000
      f+2     :     0.000000
      f-2     :     0.000000
      f+3     :     0.000000
      f-3     :     0.000000


                     *******************************
                     * LOEWDIN POPULATION ANALYSIS *
                     *******************************

-----------------------------------------
LOEWDIN ATOMIC CHARGES AND SPIN DENSITIES
-----------------------------------------
   0 B :   -0.001391   -0.998078
   1 H :    0.001391    0.998078

--------------------------------------------------
LOEWDIN REDUCED ORBITAL CHARGES AND SPIN DENSITIES
--------------------------------------------------
CHARGE
  0 B s       :     3.883078  s :     3.883078
      pz      :     0.052000  p :     1.096085
      px      :     0.992085
      py      :     0.052000
      dz2     :     0.002238  d :     0.021328
      dxz     :     0.006303
      dyz     :     0.000230
      dx2y2   :     0.006255
      dxy     :     0.006303
      f0      :     0.000079  f :     0.000799
      f+1     :     0.000140
      f-1     :     0.000030
      f+2     :     0.000118
      f-2     :     0.000100
      f+3     :     0.000166
      f-3     :     0.000167
      g0      :     0.000008  g :     0.000100
      g+1     :     0.000013
      g-1     :     0.000004
      g+2     :     0.000010
      g-2     :     0.000010
      g+3     :     0.000012
      g-3     :     0.000012
      g+4     :     0.000015
      g-4     :     0.000015
  1 H s       :     0.998545  s :     0.998545
      pz      :     0.000003  p :     0.000059
      px      :     0.000052
      py      :     0.000003
      dz2     :     0.000001  d :     0.000005
      dxz     :     0.000000
      dyz     :     0.000000
      dx2y2   :     0.000003
      dxy     :     0.000000
      f0      :     0.000000  f :     0.000000
      f+1     :     0.000000
      f-1     :     0.000000
      f+2     :     0.000000
      f-2     :     0.000000
      f+3     :     0.000000
      f-3     :     0.000000

SPIN
  0 B s       :    -0.017018  s :    -0.017018
      pz      :     0.001832  p :    -0.971312
      px      :    -0.974975
      py      :     0.001832
      dz2     :    -0.000914  d :    -0.009321
      dxz     :    -0.002822
      dyz     :     0.000022
      dx2y2   :    -0.002786
      dxy     :    -0.002822
      f0      :    -0.000035  f :    -0.000391
      f+1     :    -0.000071
      f-1     :    -0.000004
      f+2     :    -0.000059
      f-2     :    -0.000044
      f+3     :    -0.000089
      f-3     :    -0.000089
      g0      :    -0.000003  g :    -0.000037
      g+1     :    -0.000005
      g-1     :    -0.000001
      g+2     :    -0.000004
      g-2     :    -0.000003
      g+3     :    -0.000005
      g-3     :    -0.000005
      g+4     :    -0.000006
      g-4     :    -0.000006
  1 H s       :     0.998075  s :     0.998075
      pz      :     0.000003  p :     0.000004
      px      :    -0.000002
      py      :     0.000003
      dz2     :    -0.000000  d :    -0.000001
      dxz     :     0.000000
      dyz     :     0.000000
      dx2y2   :    -0.000001
      dxy     :     0.000000
      f0      :     0.000000  f :    -0.000000
      f+1     :    -0.000000
      f-1     :     0.000000
      f+2     :     0.000000
      f-2     :     0.000000
      f+3     :    -0.000000
      f-3     :     0.000000


                      *****************************
                      * MAYER POPULATION ANALYSIS *
                      *****************************

  NA   - Mulliken gross atomic population
  ZA   - Total nuclear charge
  QA   - Mulliken gross atomic charge
  VA   - Mayer's total valence
  BVA  - Mayer's bonded valence
  FA   - Mayer's free valence

  ATOM       NA         ZA         QA         VA         BVA        FA
  0 B      5.0000     5.0000     0.0000     1.5048     0.0002     1.5046
  1 H      1.0000     1.0000    -0.0000     1.0002     0.0002     1.0000

  Mayer bond orders larger than 0.100000




------------------------------------------------------------------------------- 
                                     TIMINGS                                   
------------------------------------------------------------------------------- 


Total execution time                   ...       46.276 sec

Fock Matrix Formation                  ...        0.802 sec (  1.7%)
Initial Guess                          ...        0.001 sec (  0.0%)
DIIS Solver                            ...        0.050 sec (  0.1%)
State Vector Update                    ...        0.003 sec (  0.0%)
Sigma-vector construction              ...       17.037 sec ( 36.8%)
  <0|H|D>                              ...        0.005 sec (  0.0% of sigma)
  <D|H|D>(0-ext Fock)                  ...        0.006 sec (  0.0% of sigma)
  <D|H|D>(0-ext)                       ...        0.005 sec (  0.0% of sigma)
  <D|H|D>(2-ext Fock)                  ...        0.011 sec (  0.1% of sigma)
  <D|H|D>(2-ext)                       ...        0.082 sec (  0.5% of sigma)
  <D|H|D>(4-ext)                       ...        6.970 sec ( 40.9% of sigma)
  <S|H|D>(1-ext)                       ...        0.002 sec (  0.0% of sigma)
  <D|H|S>(1-ext)                       ...        0.013 sec (  0.1% of sigma)
  Fock-dressing                        ...        8.521 sec ( 50.0% of sigma)
  (ik|jl)-dressing                     ...        0.007 sec (  0.0% of sigma)
  (ij|ab),(ia|jb)-dressing             ...        1.134 sec (  6.7% of sigma)
  Pair energies                        ...        0.004 sec (  0.0% of sigma)


Maximum memory used throughout the entire MDCI-calculation: 386.3 MB

-------------------------   --------------------
FINAL SINGLE POINT ENERGY       -25.099448152599
-------------------------   --------------------


                            ***************************************
                            *     ORCA property calculations      *
                            ***************************************

                                    ---------------------
                                    Active property flags
                                    ---------------------
   (+) Dipole Moment


------------------------------------------------------------------------------
                       ORCA ELECTRIC PROPERTIES CALCULATION
------------------------------------------------------------------------------

Dipole Moment Calculation                       ... on
Quadrupole Moment Calculation                   ... off
Polarizability Calculation                      ... off
GBWName                                         ... /scratch/BH-6.0-UCCSD-O_953/BH-6.0-UCCSD-O.gbw
Electron density file                           ... /scratch/BH-6.0-UCCSD-O_953/BH-6.0-UCCSD-O.scfp
The origin for moment calculation is the CENTER OF MASS  = ( 0.967089,  0.000000  0.000000)

-------------
DIPOLE MOMENT
-------------
                                X             Y             Z
Electronic contribution:     -5.53794       0.00000      -0.00000
Nuclear contribution   :      5.53582       0.00000       0.00000
                        -----------------------------------------
Total Dipole Moment    :     -0.00212       0.00000      -0.00000
                        -----------------------------------------
Magnitude (a.u.)       :      0.00212
Magnitude (Debye)      :      0.00539



--------------------
Rotational spectrum 
--------------------
 
Rotational constants in cm-1:     0.000000     0.507870     0.507870 
Rotational constants in MHz :     0.000000 15225.545546 15225.545546 

 Dipole components along the rotational axes: 
x,y,z [a.u.] :    -0.002121     0.000000    -0.000000 
x,y,z [Debye]:    -0.005391     0.000000    -0.000000 

 

                           *** MDCI DENSITY ***

------------------------------------------------------------------------------
                       ORCA ELECTRIC PROPERTIES CALCULATION
------------------------------------------------------------------------------

Dipole Moment Calculation                       ... on
Quadrupole Moment Calculation                   ... off
Polarizability Calculation                      ... off
GBWName                                         ... /scratch/BH-6.0-UCCSD-O_953/BH-6.0-UCCSD-O.gbw
Electron density file                           ... /scratch/BH-6.0-UCCSD-O_953/BH-6.0-UCCSD-O.mdcip
The origin for moment calculation is the CENTER OF MASS  = ( 0.967089,  0.000000  0.000000)

-------------
DIPOLE MOMENT
-------------
                                X             Y             Z
Electronic contribution:     -5.53813       0.00000      -0.00000
Nuclear contribution   :      5.53582       0.00000       0.00000
                        -----------------------------------------
Total Dipole Moment    :     -0.00231       0.00000      -0.00000
                        -----------------------------------------
Magnitude (a.u.)       :      0.00231
Magnitude (Debye)      :      0.00588



--------------------
Rotational spectrum 
--------------------
 
Rotational constants in cm-1:     0.000000     0.507870     0.507870 
Rotational constants in MHz :     0.000000 15225.545546 15225.545546 

 Dipole components along the rotational axes: 
x,y,z [a.u.] :    -0.002312     0.000000    -0.000000 
x,y,z [Debye]:    -0.005877     0.000000    -0.000000 

 

Timings for individual modules:

Sum of individual times         ...       48.009 sec (=   0.800 min)
GTO integral calculation        ...        0.670 sec (=   0.011 min)   1.4 %
SCF iterations                  ...        0.842 sec (=   0.014 min)   1.8 %
MDCI module                     ...       46.497 sec (=   0.775 min)  96.9 %
                             ****ORCA TERMINATED NORMALLY****
TOTAL RUN TIME: 0 days 0 hours 0 minutes 48 seconds 132 msec

Sender: Unischeduler System <lcz@mgt01>
Subject: Job 134328: <#!/bin/bash
#BSUB -J intel
#BSUB -o BH-6.0-UCCSD-O.out
#BSUB -n 1
#BSUB -q cqueue
export LD_LIBRARY_PATH=/apps/software/openmpi-4.1.1/lib:/apps/software/orca_5_0_0:$LD_LIBRARY_PATH
export PATH=/apps/software/openmpi-4.1.1/bin:/apps/software/orca_5_0_0:$PATH
mkdir /scratch/BH-6.0-UCCSD-O_953
scp $USER@mgt01:/apps/users/lcz/exe13/UCCSD/BH-6.0-UCCSD-O.inp /scratch/BH-6.0-UCCSD-O_953
scp $USER@mgt01:/apps/users/lcz/exe13/UCCSD/BH-6.0-UHF-O.gbw /scratch/BH-6.0-UCCSD-O_953
/apps/software/orca_5_0_0/orca /scratch/BH-6.0-UCCSD-O_953/BH-6.0-UCCSD-O.inp >& BH-6.0-UCCSD-O.out
scp /scratch/BH-6.0-UCCSD-O_953/*.gbw $USER@mgt01:/apps/users/lcz/exe13/UCCSD
scp /scratch/BH-6.0-UCCSD-O_953/*.xyz $USER@mgt01:/apps/users/lcz/exe13/UCCSD
scp /scratch/BH-6.0-UCCSD-O_953/*.trj $USER@mgt01:/apps/users/lcz/exe13/UCCSD> Exited

Job <#!/bin/bash
#BSUB -J intel
#BSUB -o BH-6.0-UCCSD-O.out
#BSUB -n 1
#BSUB -q cqueue
export LD_LIBRARY_PATH=/apps/software/openmpi-4.1.1/lib:/apps/software/orca_5_0_0:$LD_LIBRARY_PATH
export PATH=/apps/software/openmpi-4.1.1/bin:/apps/software/orca_5_0_0:$PATH
mkdir /scratch/BH-6.0-UCCSD-O_953
scp $USER@mgt01:/apps/users/lcz/exe13/UCCSD/BH-6.0-UCCSD-O.inp /scratch/BH-6.0-UCCSD-O_953
scp $USER@mgt01:/apps/users/lcz/exe13/UCCSD/BH-6.0-UHF-O.gbw /scratch/BH-6.0-UCCSD-O_953
/apps/software/orca_5_0_0/orca /scratch/BH-6.0-UCCSD-O_953/BH-6.0-UCCSD-O.inp >& BH-6.0-UCCSD-O.out
scp /scratch/BH-6.0-UCCSD-O_953/*.gbw $USER@mgt01:/apps/users/lcz/exe13/UCCSD
scp /scratch/BH-6.0-UCCSD-O_953/*.xyz $USER@mgt01:/apps/users/lcz/exe13/UCCSD
scp /scratch/BH-6.0-UCCSD-O_953/*.trj $USER@mgt01:/apps/users/lcz/exe13/UCCSD> was submitted from host <mgt01> by user <lcz>.
Job was executed on host(s) <1*cnode01>, in queue <cqueue>, as user <lcz>.
</apps/users/lcz> was used as the home directory.
</apps/users/lcz/exe13/UCCSD> was used as the working directory.
Started at 2022-05-22 20:34:11
Results reported at 2022-05-22 20:35:04

Your job looked like:

------------------------------------------------------------
# User input
#!/bin/bash
#BSUB -J intel
#BSUB -o BH-6.0-UCCSD-O.out
#BSUB -n 1
#BSUB -q cqueue
export LD_LIBRARY_PATH=/apps/software/openmpi-4.1.1/lib:/apps/software/orca_5_0_0:$LD_LIBRARY_PATH
export PATH=/apps/software/openmpi-4.1.1/bin:/apps/software/orca_5_0_0:$PATH
mkdir /scratch/BH-6.0-UCCSD-O_953
scp $USER@mgt01:/apps/users/lcz/exe13/UCCSD/BH-6.0-UCCSD-O.inp /scratch/BH-6.0-UCCSD-O_953
scp $USER@mgt01:/apps/users/lcz/exe13/UCCSD/BH-6.0-UHF-O.gbw /scratch/BH-6.0-UCCSD-O_953
/apps/software/orca_5_0_0/orca /scratch/BH-6.0-UCCSD-O_953/BH-6.0-UCCSD-O.inp >& BH-6.0-UCCSD-O.out
scp /scratch/BH-6.0-UCCSD-O_953/*.gbw $USER@mgt01:/apps/users/lcz/exe13/UCCSD
scp /scratch/BH-6.0-UCCSD-O_953/*.xyz $USER@mgt01:/apps/users/lcz/exe13/UCCSD
scp /scratch/BH-6.0-UCCSD-O_953/*.trj $USER@mgt01:/apps/users/lcz/exe13/UCCSD
------------------------------------------------------------

Exited with exit code 1.

Resource usage summary:

    CPU time   :           18.77 sec.
    Max Memory :               408 MB
    Max Processes  :               5


The output (if any) follows:

/scratch/BH-6.0-UCCSD-O_953/*.xyz: No such file or directory
/scratch/BH-6.0-UCCSD-O_953/*.trj: No such file or directory
