 Entering Gaussian System, Link 0=/apps/software/g16/g16
 Initial command:
 /apps/software/g16/l1.exe "/scratch/Gau-448284.inp" -scrdir="/scratch/"
 Entering Link 1 = /apps/software/g16/l1.exe PID=    448285.
  
 Copyright (c) 1988,1990,1992,1993,1995,1998,2003,2009,2016,
            Gaussian, Inc.  All Rights Reserved.
  
 This is part of the Gaussian(R) 16 program.  It is based on
 the Gaussian(R) 09 system (copyright 2009, Gaussian, Inc.),
 the Gaussian(R) 03 system (copyright 2003, Gaussian, Inc.),
 the Gaussian(R) 98 system (copyright 1998, Gaussian, Inc.),
 the Gaussian(R) 94 system (copyright 1995, Gaussian, Inc.),
 the Gaussian 92(TM) system (copyright 1992, Gaussian, Inc.),
 the Gaussian 90(TM) system (copyright 1990, Gaussian, Inc.),
 the Gaussian 88(TM) system (copyright 1988, Gaussian, Inc.),
 the Gaussian 86(TM) system (copyright 1986, Carnegie Mellon
 University), and the Gaussian 82(TM) system (copyright 1983,
 Carnegie Mellon University). Gaussian is a federally registered
 trademark of Gaussian, Inc.
  
 This software contains proprietary and confidential information,
 including trade secrets, belonging to Gaussian, Inc.
  
 This software is provided under written license and may be
 used, copied, transmitted, or stored only in accord with that
 written license.
  
 The following legend is applicable only to US Government
 contracts under FAR:
  
                    RESTRICTED RIGHTS LEGEND
  
 Use, reproduction and disclosure by the US Government is
 subject to restrictions as set forth in subparagraphs (a)
 and (c) of the Commercial Computer Software - Restricted
 Rights clause in FAR 52.227-19.
  
 Gaussian, Inc.
 340 Quinnipiac St., Bldg. 40, Wallingford CT 06492
  
  
 ---------------------------------------------------------------
 Warning -- This program may not be used in any manner that
 competes with the business of Gaussian, Inc. or will provide
 assistance to any competitor of Gaussian, Inc.  The licensee
 of this program is prohibited from giving any competitor of
 Gaussian, Inc. access to this program.  By using this program,
 the user acknowledges that Gaussian, Inc. is engaged in the
 business of creating and licensing software in the field of
 computational chemistry and represents and warrants to the
 licensee that it is not a competitor of Gaussian, Inc. and that
 it will not use this program in any manner prohibited above.
 ---------------------------------------------------------------
  

 Cite this work as:
 Gaussian 16, Revision A.03,
 M. J. Frisch, G. W. Trucks, H. B. Schlegel, G. E. Scuseria, 
 M. A. Robb, J. R. Cheeseman, G. Scalmani, V. Barone, 
 G. A. Petersson, H. Nakatsuji, X. Li, M. Caricato, A. V. Marenich, 
 J. Bloino, B. G. Janesko, R. Gomperts, B. Mennucci, H. P. Hratchian, 
 J. V. Ortiz, A. F. Izmaylov, J. L. Sonnenberg, D. Williams-Young, 
 F. Ding, F. Lipparini, F. Egidi, J. Goings, B. Peng, A. Petrone, 
 T. Henderson, D. Ranasinghe, V. G. Zakrzewski, J. Gao, N. Rega, 
 G. Zheng, W. Liang, M. Hada, M. Ehara, K. Toyota, R. Fukuda, 
 J. Hasegawa, M. Ishida, T. Nakajima, Y. Honda, O. Kitao, H. Nakai, 
 T. Vreven, K. Throssell, J. A. Montgomery, Jr., J. E. Peralta, 
 F. Ogliaro, M. J. Bearpark, J. J. Heyd, E. N. Brothers, K. N. Kudin, 
 V. N. Staroverov, T. A. Keith, R. Kobayashi, J. Normand, 
 K. Raghavachari, A. P. Rendell, J. C. Burant, S. S. Iyengar, 
 J. Tomasi, M. Cossi, J. M. Millam, M. Klene, C. Adamo, R. Cammi, 
 J. W. Ochterski, R. L. Martin, K. Morokuma, O. Farkas, 
 J. B. Foresman, and D. J. Fox, Gaussian, Inc., Wallingford CT, 2016.
 
 ******************************************
 Gaussian 16:  ES64L-G16RevA.03 25-Dec-2016
                22-May-2022 
 ******************************************
 %oldchk=BH-6.0-UHF-G.chk
 %chk=BH-6.0-UCCSD-G.chk
 Copying data from "BH-6.0-UHF-G.chk" to current chk file "BH-6.0-UCCSD-G.chk"
 IOpt=  2 FromEx=T IUOpen= 4 IOptOp= 5 NList=   0 IFRang= 0 IUIn= 4 IUOut= 2.
 -------------------------------------
 #p UHF/aug-cc-pVQZ guess=read CCSD=FC
 -------------------------------------
 1/38=1,172=1/1;
 2/12=2,17=6,18=5,40=1/2;
 3/5=16,6=2,7=10,11=2,25=1,30=1,116=2/1,2,3;
 4/5=1/1;
 5/5=2,38=6/2;
 8/6=4,9=120000,10=1/1,4;
 9/5=7/13;
 6/7=2,8=2,9=2,10=2/1;
 99/5=1,9=1/99;
 Leave Link    1 at Sun May 22 18:35:28 2022, MaxMem=   104857600 cpu:               0.0 elap:               0.0
 (Enter /apps/software/g16/l101.exe)
 ------------------------
 BH UCCSD at 6.0 Angstrom
 ------------------------
 Symbolic Z-matrix:
 Charge =  0 Multiplicity = 1
 B                     0.        0.        0. 
 H                     6.        0.        0. 
 
 ITRead=  0  0
 MicOpt= -1 -1
 NAtoms=      2 NQM=        2 NQMF=       0 NMMI=      0 NMMIF=      0
                NMic=       0 NMicF=      0.
                    Isotopes and Nuclear Properties:
 (Nuclear quadrupole moments (NQMom) in fm**2, nuclear magnetic moments (NMagM)
  in nuclear magnetons)

  Atom         1           2
 IAtWgt=          11           1
 AtmWgt=  11.0093053   1.0078250
 NucSpn=           3           1
 AtZEff=  -0.0000000  -0.0000000
 NQMom=    4.0590000   0.0000000
 NMagM=    2.6886370   2.7928460
 AtZNuc=   5.0000000   1.0000000
 Leave Link  101 at Sun May 22 18:35:28 2022, MaxMem=   104857600 cpu:               0.1 elap:               0.1
 (Enter /apps/software/g16/l202.exe)
                          Input orientation:                          
 ---------------------------------------------------------------------
 Center     Atomic      Atomic             Coordinates (Angstroms)
 Number     Number       Type             X           Y           Z
 ---------------------------------------------------------------------
      1          5           0        0.000000    0.000000    0.000000
      2          1           0        6.000000    0.000000    0.000000
 ---------------------------------------------------------------------
 Stoichiometry    BH
 Framework group  C*V[C*(HB)]
 Deg. of freedom     1
 Full point group                 C*V     NOp   4
 Largest Abelian subgroup         C2V     NOp   4
 Largest concise Abelian subgroup C1      NOp   1
                         Standard orientation:                         
 ---------------------------------------------------------------------
 Center     Atomic      Atomic             Coordinates (Angstroms)
 Number     Number       Type             X           Y           Z
 ---------------------------------------------------------------------
      1          5           0        0.000000    0.000000    1.000000
      2          1           0        0.000000    0.000000   -5.000000
 ---------------------------------------------------------------------
 Rotational constants (GHZ):           0.0000000          15.2044394          15.2044394
 Leave Link  202 at Sun May 22 18:35:28 2022, MaxMem=   104857600 cpu:               0.0 elap:               0.0
 (Enter /apps/software/g16/l301.exe)
 Standard basis: Aug-CC-pVQZ (5D, 7F)
 Ernie: Thresh=  0.10000D-02 Tol=  0.10000D-05 Strict=F.
 Ernie:  4 primitive shells out of 54 were deleted.
 There are    68 symmetry adapted cartesian basis functions of A1  symmetry.
 There are    18 symmetry adapted cartesian basis functions of A2  symmetry.
 There are    37 symmetry adapted cartesian basis functions of B1  symmetry.
 There are    37 symmetry adapted cartesian basis functions of B2  symmetry.
 There are    50 symmetry adapted basis functions of A1  symmetry.
 There are    16 symmetry adapted basis functions of A2  symmetry.
 There are    30 symmetry adapted basis functions of B1  symmetry.
 There are    30 symmetry adapted basis functions of B2  symmetry.
   126 basis functions,   180 primitive gaussians,   160 cartesian basis functions
     3 alpha electrons        3 beta electrons
       nuclear repulsion energy         0.4409810091 Hartrees.
 IExCor=    0 DFT=F Ex=HF Corr=None ExCW=0 ScaHFX=  1.000000
 ScaDFX=  1.000000  1.000000  1.000000  1.000000 ScalE2=  1.000000  1.000000
 IRadAn=      5 IRanWt=     -1 IRanGd=            0 ICorTp=0 IEmpDi=  4
 NAtoms=    2 NActive=    2 NUniq=    2 SFac= 1.00D+00 NAtFMM=   60 NAOKFM=F Big=F
 Integral buffers will be    131072 words long.
 Raffenetti 2 integral format.
 Two-electron integral symmetry is turned on.
 Leave Link  301 at Sun May 22 18:35:28 2022, MaxMem=   104857600 cpu:               0.1 elap:               0.1
 (Enter /apps/software/g16/l302.exe)
 NPDir=0 NMtPBC=     1 NCelOv=     1 NCel=       1 NClECP=     1 NCelD=      1
         NCelK=      1 NCelE2=     1 NClLst=     1 CellRange=     0.0.
 One-electron integrals computed using PRISM.
 One-electron integral symmetry used in STVInt
 NBasis=   126 RedAO= T EigKep=  1.28D-02  NBF=    50    16    30    30
 NBsUse=   126 1.00D-06 EigRej= -1.00D+00 NBFU=    50    16    30    30
 Leave Link  302 at Sun May 22 18:35:28 2022, MaxMem=   104857600 cpu:               0.1 elap:               0.1
 (Enter /apps/software/g16/l303.exe)
 DipDrv:  MaxL=1.
 Leave Link  303 at Sun May 22 18:35:28 2022, MaxMem=   104857600 cpu:               0.0 elap:               0.0
 (Enter /apps/software/g16/l401.exe)
 Initial guess from the checkpoint file:  "BH-6.0-UCCSD-G.chk"
 B after Tr=     0.000000    0.000000    0.000000
         Rot=    1.000000    0.000000    0.000000    0.000000 Ang=   0.00 deg.
 Guess basis will be translated and rotated to current coordinates.
 JPrj=2 DoOrth=T DoCkMO=T.
 Initial guess orbital symmetries:
 Alpha Orbitals:
       Occupied  (SG) (SG) (SG)
       Virtual   (PI) (PI) (SG) (SG) (SG) (PI) (PI) (SG) (SG) (DLTA)
                 (DLTA) (PI) (PI) (PI) (PI) (SG) (PI) (PI) (SG)
                 (SG) (SG) (PHI) (PHI) (DLTA) (DLTA) (PI) (PI)
                 (SG) (DLTA) (DLTA) (PI) (PI) (SG) (DLTA) (DLTA)
                 (PI) (PI) (SG) (PI) (PI) (SG) (PI) (PI) (SG) (?A)
                 (?A) (PHI) (PHI) (DLTA) (DLTA) (PI) (PI) (SG)
                 (DLTA) (DLTA) (SG) (PHI) (PHI) (PI) (PI) (DLTA)
                 (DLTA) (SG) (PI) (PI) (SG) (PHI) (PHI) (DLTA)
                 (DLTA) (PI) (PI) (SG) (SG) (DLTA) (DLTA) (PI)
                 (PI) (SG) (PI) (PI) (SG) (PI) (PI) (SG) (?A) (?A)
                 (PHI) (PHI) (DLTA) (DLTA) (DLTA) (DLTA) (PI) (PI)
                 (SG) (PI) (PI) (SG) (PHI) (PHI) (DLTA) (DLTA)
                 (PI) (PI) (SG) (PHI) (PHI) (DLTA) (DLTA) (PI)
                 (PI) (SG) (SG) (PI) (PI) (SG) (DLTA) (DLTA) (PI)
                 (PI) (SG) (SG)
 Beta  Orbitals:
       Occupied  (SG) (SG) (SG)
       Virtual   (SG) (PI) (PI) (SG) (SG) (PI) (PI) (SG) (PI) (PI)
                 (DLTA) (DLTA) (SG) (PI) (PI) (SG) (SG) (PI) (PI)
                 (SG) (PHI) (PHI) (SG) (DLTA) (DLTA) (PI) (PI)
                 (SG) (PI) (PI) (DLTA) (DLTA) (SG) (DLTA) (DLTA)
                 (PI) (PI) (SG) (PI) (PI) (SG) (SG) (PI) (PI) (?A)
                 (?A) (PHI) (PHI) (DLTA) (DLTA) (SG) (PI) (PI)
                 (SG) (PI) (PI) (DLTA) (DLTA) (SG) (PHI) (PHI)
                 (DLTA) (DLTA) (PI) (PI) (SG) (PHI) (PHI) (DLTA)
                 (DLTA) (PI) (PI) (SG) (SG) (DLTA) (DLTA) (PI)
                 (PI) (SG) (PI) (PI) (SG) (PI) (PI) (SG) (?A) (?A)
                 (PHI) (PHI) (DLTA) (DLTA) (PI) (PI) (SG) (DLTA)
                 (DLTA) (PI) (PI) (SG) (PHI) (PHI) (DLTA) (DLTA)
                 (PI) (PI) (SG) (PHI) (PHI) (DLTA) (DLTA) (PI)
                 (PI) (SG) (SG) (PI) (PI) (SG) (DLTA) (DLTA) (PI)
                 (PI) (SG) (SG)
 The electronic state of the initial guess is 1-SG.
 Initial guess <Sx>= 0.0000 <Sy>= 0.0000 <Sz>= 0.0000 <S**2>= 1.0113 S= 0.6231
 Leave Link  401 at Sun May 22 18:35:28 2022, MaxMem=   104857600 cpu:               0.1 elap:               0.1
 (Enter /apps/software/g16/l502.exe)
 Keep R1 and R2 ints in memory in symmetry-blocked form, NReq=40143665.
 FoFCou: FMM=F IPFlag=           0 FMFlag=           0 FMFlg1=           0
         NFxFlg=           0 DoJE=F BraDBF=F KetDBF=F FulRan=T
         wScrn=  0.000000 ICntrl=       600 IOpCl=  0 I1Cent=           0 NGrid=           0
         NMat0=    1 NMatS0=   8001 NMatT0=    0 NMatD0=    1 NMtDS0=    0 NMtDT0=    0
 Petite list used in FoFCou.
 UHF open shell SCF:
 Using DIIS extrapolation, IDIIS=  1040.
 NGot=   104857600 LenX=    88563632 LenY=    88537591
 Requested convergence on RMS density matrix=1.00D-08 within 128 cycles.
 Requested convergence on MAX density matrix=1.00D-06.
 Requested convergence on             energy=1.00D-06.
 No special actions if energy rises.
 An orbital has undefined symmetry, so N**3 symmetry is turned off.

 Cycle   1  Pass 1  IDiag  1:
 E= -25.0329334080858    
 DIIS: error= 1.08D-08 at cycle   1 NSaved=   1.
 NSaved= 1 IEnMin= 1 EnMin= -25.0329334080858     IErMin= 1 ErrMin= 1.08D-08
 ErrMax= 1.08D-08  0.00D+00 EMaxC= 1.00D-01 BMatC= 9.88D-15 BMatP= 9.88D-15
 IDIUse=1 WtCom= 1.00D+00 WtEn= 0.00D+00
 Coeff-Com:  0.100D+01
 Coeff:      0.100D+01
 Gap=     0.474 Goal=   None    Shift=    0.000
 Gap=     0.335 Goal=   None    Shift=    0.000
 RMSDP=6.82D-10 MaxDP=2.78D-08              OVMax= 6.29D-08

 SCF Done:  E(UHF) =  -25.0329334081     A.U. after    1 cycles
            NFock=  1  Conv=0.68D-09     -V/T= 2.0000
 <Sx>= 0.0000 <Sy>= 0.0000 <Sz>= 0.0000 <S**2>= 1.0113 S= 0.6231
 <L.S>=  0.00000000000    
 KE= 2.503234107159D+01 PE=-5.878384530178D+01 EE= 8.277589812998D+00
 Annihilation of the first spin contaminant:
 S**2 before annihilation     1.0113,   after     0.0896
 Leave Link  502 at Sun May 22 18:35:31 2022, MaxMem=   104857600 cpu:               3.2 elap:               3.2
 (Enter /apps/software/g16/l801.exe)
 Windowed orbitals will be sorted by symmetry type.
 ExpMin= 1.88D-02 ExpMax= 2.39D+04 ExpMxC= 2.30D+02 IAcc=3 IRadAn=         5 AccDes= 0.00D+00
 HarFok:  IExCor=  205 AccDes= 0.00D+00 IRadAn=         5 IDoV=-2 UseB2=F ITyADJ=14
 ICtDFT= 12500011 ScaDFX=  1.000000  1.000000  1.000000  1.000000
 DSYEVD-2 returned Info=        3401 IAlg= 4 N=    80 NDim=    80 NE2=     1309686 trying  DSYEV.
 Largest valence mixing into a core orbital is  4.07D-04
 Largest core mixing into a valence orbital is  1.57D-04
 Largest valence mixing into a core orbital is  3.10D-04
 Largest core mixing into a valence orbital is  1.07D-04
 Range of M.O.s used for correlation:     2   126
 NBasis=   126 NAE=     3 NBE=     3 NFC=     1 NFV=     0
 NROrb=    125 NOA=     2 NOB=     2 NVA=   123 NVB=   123
 Leave Link  801 at Sun May 22 18:35:32 2022, MaxMem=   104857600 cpu:               0.1 elap:               0.1
 (Enter /apps/software/g16/l804.exe)
 Open-shell transformation, MDV=   104857600 ITran=4 ISComp=1.
 Unit  1 TFree=        991730 TCopy=        422292.
 Semi-Direct transformation.
 ModeAB=           4 MOrb=             2 LenV=     104178382
 LASXX=      1914004 LTotXX=     1914004 LenRXX=     3874879
 LTotAB=     1960875 MaxLAS=     2943750 LenRXY=           0
 NonZer=     5788883 LenScr=     9431040 LnRSAI=     2943750
 LnScr1=     5150208 LExtra=           0 Total=     21399877
 MaxDsk=          -1 SrtSym=           T ITran=            4
 DoSDTr:  NPSUse=  1
 JobTyp=1 Pass  1:  I=   1 to   2.
 (rs|ai) integrals will be sorted in core.
 Complete sort for first half transformation.
 First half transformation complete.
 Complete sort for second half transformation.
 Second half transformation complete.
 ModeAB=           4 MOrb=             2 LenV=     104178382
 LASXX=      1914004 LTotXX=     1914004 LenRXX=     3812878
 LTotAB=     1898874 MaxLAS=     2943750 LenRXY=           0
 NonZer=     5726882 LenScr=     9369600 LnRSAI=     2943750
 LnScr1=     5150208 LExtra=           0 Total=     21276436
 MaxDsk=          -1 SrtSym=           T ITran=            4
 DoSDTr:  NPSUse=  1
 JobTyp=2 Pass  1:  I=   1 to   2.
 (rs|ai) integrals will be sorted in core.
 Complete sort for first half transformation.
 First half transformation complete.
 Complete sort for second half transformation.
 Second half transformation complete.
 SymMOI:  orbitals are not symmetric.
 Spin components of T(2) and E(2):
     alpha-alpha T2 =       0.2786035731D-05 E2=     -0.3759029595D-05
     alpha-beta  T2 =       0.2503699797D-01 E2=     -0.4382758709D-01
     beta-beta   T2 =       0.1671446331D-02 E2=     -0.3426626337D-02
 ANorm=    0.1013267601D+01
 E2 =    -0.4725797245D-01 EUMP2 =    -0.25080191380537D+02
 (S**2,0)=  0.10113D+01           (S**2,1)=  0.10023D+01
 E(PUHF)=      -0.25040527696D+02        E(PMP2)=      -0.25087753137D+02
 Leave Link  804 at Sun May 22 18:35:41 2022, MaxMem=   104857600 cpu:               8.9 elap:               8.9
 (Enter /apps/software/g16/l913.exe)
 CIDS:  MDV=   104857600.
 Frozen-core window:  NFC=   1 NFV=   0.
 IFCWin=0 IBDFC=1 NFBD=     0     0 NFCmp=     0     0 NFFFC=     0     0
 Using original routines for 1st iteration.
 Using DD4UQ or CC4UQ for 2nd and later iterations.
 Keep R2 and R3 ints in memory in symmetry-blocked form, NReq=40147367.
 FoFCou: FMM=F IPFlag=           0 FMFlag=           0 FMFlg1=           0
         NFxFlg=           0 DoJE=F BraDBF=F KetDBF=F FulRan=T
         wScrn=  0.000000 ICntrl=       600 IOpCl=  0 I1Cent=           0 NGrid=           0
         NMat0=    1 NMatS0=   8001 NMatT0=    0 NMatD0=    1 NMtDS0=    0 NMtDT0=    0
 Petite list used in FoFCou.
 CIDS: In Core Option IDoMem=           1.
 Coupled Cluster theory with single and double substitutions
 ===========================================================
 Iterations=  50 Convergence= 0.100D-06
 Produce multiple copies of IABC intergrals
 Iteration Nr.   1
 **********************
 DD1Dir will call FoFMem   1 times, MxPair=        10
 NAB=     4 NAA=     1 NBB=     1.
 E(PMP3)=      -0.25099461102D+02
 MP4(R+Q)=  0.12620364D-02
 Maximum subspace dimension=  5
 A-vector RMS=  1.8916415D-03 Max=  1.3869648D-02 conv= 1.00D-05.
 RLE energy=       -0.0606996493
 E3=       -0.11732273D-01        EUMP3=      -0.25091923654D+02
 E4(DQ)=   -0.40480444D-02        UMP4(DQ)=   -0.25095971698D+02
 E4(SDQ)=  -0.43477143D-02        UMP4(SDQ)=  -0.25096271368D+02
 VARIATIONAL ENERGIES WITH THE FIRST-ORDER WAVEFUNCTION:
 DE(Corr)= -0.57723048E-01 E(Corr)=     -25.090656456    
 NORM(A)=   0.10260978D+01
 Iteration Nr.   2
 **********************
 DD1Dir will call FoFMem   1 times, MxPair=        10
 NAB=     4 NAA=     1 NBB=     1.
 A-vector RMS=  7.0024645D-04 Max=  5.6032505D-03 conv= 1.00D-05.
 RLE energy=       -0.0660882144
 DE(Corr)= -0.63394611E-01 E(CORR)=     -25.096328020     Delta=-5.67D-03
 NORM(A)=   0.10342035D+01
 Iteration Nr.   3
 **********************
 DD1Dir will call FoFMem   1 times, MxPair=        10
 NAB=     4 NAA=     1 NBB=     1.
 A-vector RMS=  2.0837773D-04 Max=  1.0081613D-03 conv= 1.00D-05.
 RLE energy=       -0.0664333380
 DE(Corr)= -0.66074931E-01 E(CORR)=     -25.099008339     Delta=-2.68D-03
 NORM(A)=   0.10355409D+01
 Iteration Nr.   4
 **********************
 DD1Dir will call FoFMem   1 times, MxPair=        10
 NAB=     4 NAA=     1 NBB=     1.
 A-vector RMS=  4.4036044D-05 Max=  1.9419001D-04 conv= 1.00D-05.
 RLE energy=       -0.0665325588
 DE(Corr)= -0.66468395E-01 E(CORR)=     -25.099401803     Delta=-3.93D-04
 NORM(A)=   0.10357766D+01
 Iteration Nr.   5
 **********************
 DD1Dir will call FoFMem   1 times, MxPair=        10
 NAB=     4 NAA=     1 NBB=     1.
 A-vector RMS=  9.8248348D-06 Max=  5.1404046D-05 conv= 1.00D-05.
 RLE energy=       -0.0665110368
 DE(Corr)= -0.66520607E-01 E(CORR)=     -25.099454015     Delta=-5.22D-05
 NORM(A)=   0.10357534D+01
 Iteration Nr.   6
 **********************
 DD1Dir will call FoFMem   1 times, MxPair=        10
 NAB=     4 NAA=     1 NBB=     1.
 A-vector RMS=  3.4797509D-06 Max=  1.7335512D-05 conv= 1.00D-05.
 RLE energy=       -0.0665159739
 DE(Corr)= -0.66513289E-01 E(CORR)=     -25.099446697     Delta= 7.32D-06
 NORM(A)=   0.10357602D+01
 Iteration Nr.   7
 **********************
 DD1Dir will call FoFMem   1 times, MxPair=        10
 NAB=     4 NAA=     1 NBB=     1.
 A-vector RMS=  1.4401126D-06 Max=  5.4481135D-06 conv= 1.00D-05.
 RLE energy=       -0.0665147563
 DE(Corr)= -0.66515018E-01 E(CORR)=     -25.099448426     Delta=-1.73D-06
 NORM(A)=   0.10357587D+01
 Iteration Nr.   8
 **********************
 DD1Dir will call FoFMem   1 times, MxPair=        10
 NAB=     4 NAA=     1 NBB=     1.
 A-vector RMS=  3.7639831D-07 Max=  1.6259058D-06 conv= 1.00D-05.
 RLE energy=       -0.0665146967
 DE(Corr)= -0.66514675E-01 E(CORR)=     -25.099448083     Delta= 3.43D-07
 NORM(A)=   0.10357587D+01
 Iteration Nr.   9
 **********************
 DD1Dir will call FoFMem   1 times, MxPair=        10
 NAB=     4 NAA=     1 NBB=     1.
 A-vector RMS=  1.4810134D-07 Max=  1.0221392D-06 conv= 1.00D-05.
 RLE energy=       -0.0665146355
 DE(Corr)= -0.66514671E-01 E(CORR)=     -25.099448079     Delta= 3.30D-09
 NORM(A)=   0.10357586D+01
 CI/CC converged in    9 iterations to DelEn= 3.30D-09 Conv= 1.00D-07 ErrA1= 1.48D-07 Conv= 1.00D-05
 Wavefunction amplitudes converged. E(Corr)=     -25.099448079    
 Largest amplitude= 6.41D-02

 S**2, projected HF & approx projected MPn energies after annihilation of
 unwanted spin states (see manual for definitions):

 spins       (S**2,0) (S**2,1)    PUHF        PMP2        PMP3        PMP4
 annihilated
 s+1        -0.04583 -0.00895  -25.040528  -25.087753  -25.099461
 s+1,s+2     0.00000  0.00000  -25.035447  -25.082701  -25.094431

 Discarding MO integrals.
 Leave Link  913 at Sun May 22 18:35:46 2022, MaxMem=   104857600 cpu:               5.4 elap:               5.4
 (Enter /apps/software/g16/l601.exe)
 Copying SCF densities to generalized density rwf, IOpCl= 1 IROHF=0.

 **********************************************************************

            Population analysis using the SCF density.

 **********************************************************************

 Orbital symmetries:
 Alpha Orbitals:
       Occupied  (SG) (SG) (SG)
       Virtual   (PI) (PI) (SG) (SG) (SG) (PI) (PI) (SG) (SG) (DLTA)
                 (DLTA) (PI) (PI) (PI) (PI) (SG) (PI) (PI) (SG)
                 (SG) (SG) (PHI) (PHI) (DLTA) (DLTA) (PI) (PI)
                 (SG) (DLTA) (DLTA) (PI) (PI) (SG) (DLTA) (DLTA)
                 (PI) (PI) (SG) (PI) (PI) (SG) (PI) (PI) (SG) (?A)
                 (?A) (PHI) (PHI) (DLTA) (DLTA) (PI) (PI) (SG)
                 (DLTA) (DLTA) (SG) (PHI) (PHI) (PI) (PI) (DLTA)
                 (DLTA) (SG) (PI) (PI) (SG) (PHI) (PHI) (DLTA)
                 (DLTA) (PI) (PI) (SG) (SG) (DLTA) (DLTA) (PI)
                 (PI) (SG) (PI) (PI) (SG) (PI) (PI) (SG) (?A) (?A)
                 (PHI) (PHI) (DLTA) (DLTA) (DLTA) (DLTA) (PI) (PI)
                 (SG) (PI) (PI) (SG) (PHI) (PHI) (DLTA) (DLTA)
                 (PI) (PI) (SG) (PHI) (PHI) (DLTA) (DLTA) (PI)
                 (PI) (SG) (SG) (PI) (PI) (SG) (DLTA) (DLTA) (PI)
                 (PI) (SG) (SG)
 Beta  Orbitals:
       Occupied  (SG) (SG) (SG)
       Virtual   (SG) (PI) (PI) (SG) (SG) (PI) (PI) (SG) (PI) (PI)
                 (DLTA) (DLTA) (SG) (PI) (PI) (SG) (SG) (PI) (PI)
                 (SG) (PHI) (PHI) (SG) (DLTA) (DLTA) (PI) (PI)
                 (SG) (PI) (PI) (DLTA) (DLTA) (SG) (DLTA) (DLTA)
                 (PI) (PI) (SG) (PI) (PI) (SG) (SG) (PI) (PI) (?A)
                 (?A) (PHI) (PHI) (DLTA) (DLTA) (SG) (PI) (PI)
                 (SG) (PI) (PI) (DLTA) (DLTA) (SG) (PHI) (PHI)
                 (DLTA) (DLTA) (PI) (PI) (SG) (PHI) (PHI) (DLTA)
                 (DLTA) (PI) (PI) (SG) (SG) (DLTA) (DLTA) (PI)
                 (PI) (SG) (PI) (PI) (SG) (PI) (PI) (SG) (?A) (?A)
                 (PHI) (PHI) (DLTA) (DLTA) (PI) (PI) (SG) (DLTA)
                 (DLTA) (PI) (PI) (SG) (PHI) (PHI) (DLTA) (DLTA)
                 (PI) (PI) (SG) (PHI) (PHI) (DLTA) (DLTA) (PI)
                 (PI) (SG) (SG) (PI) (PI) (SG) (DLTA) (DLTA) (PI)
                 (PI) (SG) (SG)
 The electronic state is 1-SG.
 Alpha  occ. eigenvalues --   -7.68631  -0.49823  -0.44625
 Alpha virt. eigenvalues --    0.02745   0.02745   0.04192   0.05079   0.07144
 Alpha virt. eigenvalues --    0.08427   0.08427   0.12048   0.14435   0.14575
 Alpha virt. eigenvalues --    0.14575   0.14683   0.14683   0.18092   0.18092
 Alpha virt. eigenvalues --    0.22787   0.32055   0.32055   0.35393   0.36136
 Alpha virt. eigenvalues --    0.36924   0.46181   0.46181   0.47115   0.47115
 Alpha virt. eigenvalues --    0.47697   0.47697   0.48131   0.50170   0.50170
 Alpha virt. eigenvalues --    0.52325   0.52325   0.54239   0.61486   0.61486
 Alpha virt. eigenvalues --    0.61861   0.61861   0.63321   0.74638   0.74638
 Alpha virt. eigenvalues --    0.78778   1.06041   1.06041   1.10759   1.36975
 Alpha virt. eigenvalues --    1.36975   1.38446   1.38446   1.39491   1.39491
 Alpha virt. eigenvalues --    1.40153   1.40153   1.40376   1.41597   1.41597
 Alpha virt. eigenvalues --    1.42488   1.43979   1.43979   1.45382   1.45382
 Alpha virt. eigenvalues --    1.46372   1.46372   1.47650   1.47894   1.47894
 Alpha virt. eigenvalues --    1.49169   1.56035   1.56035   1.56051   1.56051
 Alpha virt. eigenvalues --    1.56109   1.56109   1.56276   1.58436   2.44950
 Alpha virt. eigenvalues --    2.44950   2.45074   2.45074   2.45571   2.54851
 Alpha virt. eigenvalues --    2.54851   2.57740   3.74442   3.74442   3.78932
 Alpha virt. eigenvalues --    3.92037   3.92037   3.94570   3.94570   3.96051
 Alpha virt. eigenvalues --    3.96051   3.96497   3.96497   3.97505   3.97505
 Alpha virt. eigenvalues --    3.97886   4.00120   4.00120   4.02361   4.08878
 Alpha virt. eigenvalues --    4.08878   4.12143   4.12143   4.14189   4.14189
 Alpha virt. eigenvalues --    4.15140   6.55275   6.55275   6.55280   6.55280
 Alpha virt. eigenvalues --    6.55291   6.55291   6.55317   7.39014   7.92870
 Alpha virt. eigenvalues --    7.92870   7.94949   8.38837   8.38837   8.38904
 Alpha virt. eigenvalues --    8.38904   8.39296  13.05075
  Beta  occ. eigenvalues --   -7.70146  -0.54530  -0.31877
  Beta virt. eigenvalues --    0.01630   0.02366   0.02366   0.05252   0.06588
  Beta virt. eigenvalues --    0.07728   0.07728   0.11447   0.14486   0.14486
  Beta virt. eigenvalues --    0.14567   0.14567   0.14597   0.19773   0.19773
  Beta virt. eigenvalues --    0.23948   0.27615   0.31240   0.31240   0.34516
  Beta virt. eigenvalues --    0.46188   0.46188   0.46402   0.46711   0.46711
  Beta virt. eigenvalues --    0.47039   0.47039   0.47932   0.49278   0.49278
  Beta virt. eigenvalues --    0.50059   0.50059   0.51120   0.62827   0.62827
  Beta virt. eigenvalues --    0.63156   0.63156   0.64552   0.81339   0.81339
  Beta virt. eigenvalues --    0.84881   1.02769   1.05103   1.05103   1.37002
  Beta virt. eigenvalues --    1.37002   1.37930   1.37930   1.38594   1.38594
  Beta virt. eigenvalues --    1.38912   1.38984   1.38984   1.39199   1.40492
  Beta virt. eigenvalues --    1.40492   1.41108   1.41108   1.42576   1.43914
  Beta virt. eigenvalues --    1.43914   1.44744   1.44744   1.45261   1.45261
  Beta virt. eigenvalues --    1.46095   1.57292   1.57292   1.57308   1.57308
  Beta virt. eigenvalues --    1.57359   1.57359   1.57497   1.69733   2.48898
  Beta virt. eigenvalues --    2.48898   2.49020   2.49020   2.49546   2.62350
  Beta virt. eigenvalues --    2.62350   2.65086   3.73724   3.73724   3.73894
  Beta virt. eigenvalues --    3.91967   3.91967   3.93480   3.93480   3.94561
  Beta virt. eigenvalues --    3.94561   3.95210   3.95210   3.95448   3.95602
  Beta virt. eigenvalues --    3.95602   3.96457   3.96457   3.97597   4.08609
  Beta virt. eigenvalues --    4.08609   4.09998   4.09998   4.10852   4.10852
  Beta virt. eigenvalues --    4.11395   6.58160   6.58160   6.58164   6.58164
  Beta virt. eigenvalues --    6.58175   6.58175   6.58201   7.47220   7.98670
  Beta virt. eigenvalues --    7.98670   8.00726   8.43061   8.43061   8.43128
  Beta virt. eigenvalues --    8.43128   8.43516  13.03896
          Condensed to atoms (all electrons):
               1          2
     1  B    4.999823   0.000118
     2  H    0.000118   0.999942
          Atomic-Atomic Spin Densities.
               1          2
     1  B   -0.999921  -0.000008
     2  H   -0.000008   0.999938
 Mulliken charges and spin densities:
               1          2
     1  B    0.000060  -0.999930
     2  H   -0.000060   0.999930
 Sum of Mulliken charges =  -0.00000   0.00000
 Mulliken charges and spin densities with hydrogens summed into heavy atoms:
               1          2
     1  B   -0.000000   0.000000
 Electronic spatial extent (au):  <R**2>=            125.9564
 Charge=             -0.0000 electrons
 Dipole moment (field-independent basis, Debye):
    X=              0.0000    Y=              0.0000    Z=              0.0054  Tot=              0.0054
 Quadrupole moment (field-independent basis, Debye-Ang):
   XX=             -7.3043   YY=             -7.3043   ZZ=            -10.7110
   XY=             -0.0000   XZ=              0.0000   YZ=             -0.0000
 Traceless Quadrupole moment (field-independent basis, Debye-Ang):
   XX=              1.1356   YY=              1.1356   ZZ=             -2.2711
   XY=             -0.0000   XZ=              0.0000   YZ=             -0.0000
 Octapole moment (field-independent basis, Debye-Ang**2):
  XXX=              0.0000  YYY=              0.0000  ZZZ=             -7.3530  XYY=              0.0000
  XXY=             -0.0000  XXZ=              0.7783  XZZ=              0.0000  YZZ=              0.0000
  YYZ=              0.7783  XYZ=              0.0000
 Hexadecapole moment (field-independent basis, Debye-Ang**3):
 XXXX=            -10.7213 YYYY=            -10.7213 ZZZZ=           -281.9094 XXXY=             -0.0000
 XXXZ=              0.0000 YYYX=             -0.0000 YYYZ=             -0.0000 ZZZX=              0.0000
 ZZZY=             -0.0000 XXYY=             -3.5738 XXZZ=            -44.9810 YYZZ=            -44.9810
 XXYZ=              0.0000 YYXZ=              0.0000 ZZXY=             -0.0000
 N-N= 4.409810091000D-01 E-N=-5.878384538517D+01  KE= 2.503234107159D+01
 Leave Link  601 at Sun May 22 18:35:46 2022, MaxMem=   104857600 cpu:               0.1 elap:               0.1
 (Enter /apps/software/g16/l9999.exe)
 1\1\GINC-CNODE15\SP\UCCSD-FC\Aug-CC-pVQZ\B1H1\LCZ\22-May-2022\0\\#p UH
 F/aug-cc-pVQZ guess=read CCSD=FC\\BH UCCSD at 6.0 Angstrom\\0,1\B,0,0.
 ,0.,0.\H,0,6.,0.,0.\\Version=ES64L-G16RevA.03\State=1-SG\HF=-25.032933
 4\MP2=-25.0801914\MP3=-25.0919237\MP4D=-25.0972337\MP4DQ=-25.0959717\P
 UHF=-25.0405277\PMP2-0=-25.0877531\PMP3-0=-25.0994611\MP4SDQ=-25.09627
 14\CCSD=-25.0994481\S2=1.011308\S2-1=1.002251\S2A=0.08961\RMSD=6.818e-
 10\PG=C*V [C*(H1B1)]\\@


 MOM AND DAD WENT TO ALPHA CENTAURI AND ALL
 I GOT WAS THIS DUMB T-SHIRT.
 Job cpu time:       0 days  0 hours  0 minutes 18.2 seconds.
 Elapsed time:       0 days  0 hours  0 minutes 18.2 seconds.
 File lengths (MBytes):  RWF=    357 Int=      0 D2E=      0 Chk=     67 Scr=      1
 Normal termination of Gaussian 16 at Sun May 22 18:35:46 2022.

Sender: Unischeduler System <lcz@mgt01>
Subject: Job 134235: <#!/bin/bash
#BSUB -J intel
#BSUB -o BH-6.0-UCCSD-G.out
#BSUB -n 8
#BSUB -q cqueue
#BSUB -R span[hosts=1]
export g16root=/apps/software
source /apps/software/g16/bsd/g16.profile
export GAUSS_SCRDIR=/scratch
/apps/software/g16/g16 < BH-6.0-UCCSD-G.inp > BH-6.0-UCCSD-G.out> Done

Job <#!/bin/bash
#BSUB -J intel
#BSUB -o BH-6.0-UCCSD-G.out
#BSUB -n 8
#BSUB -q cqueue
#BSUB -R span[hosts=1]
export g16root=/apps/software
source /apps/software/g16/bsd/g16.profile
export GAUSS_SCRDIR=/scratch
/apps/software/g16/g16 < BH-6.0-UCCSD-G.inp > BH-6.0-UCCSD-G.out> was submitted from host <mgt01> by user <lcz>.
Job was executed on host(s) <8*cnode15>, in queue <cqueue>, as user <lcz>.
</apps/users/lcz> was used as the home directory.
</apps/users/lcz/exe13/UCCSD> was used as the working directory.
Started at 2022-05-22 18:35:28
Results reported at 2022-05-22 18:35:46

Your job looked like:

------------------------------------------------------------
# User input
#!/bin/bash
#BSUB -J intel
#BSUB -o BH-6.0-UCCSD-G.out
#BSUB -n 8
#BSUB -q cqueue
#BSUB -R span[hosts=1]
export g16root=/apps/software
source /apps/software/g16/bsd/g16.profile
export GAUSS_SCRDIR=/scratch
/apps/software/g16/g16 < BH-6.0-UCCSD-G.inp > BH-6.0-UCCSD-G.out
------------------------------------------------------------

Successfully completed.

Resource usage summary:

    CPU time   :            8.91 sec.
    Max Memory :               234 MB
    Max Processes  :               5


The output (if any) follows:

