 Entering Gaussian System, Link 0=/apps/software/g16/g16
 Initial command:
 /apps/software/g16/l1.exe "/scratch/Gau-362084.inp" -scrdir="/scratch/"
 Entering Link 1 = /apps/software/g16/l1.exe PID=    362085.
  
 Copyright (c) 1988,1990,1992,1993,1995,1998,2003,2009,2016,
            Gaussian, Inc.  All Rights Reserved.
  
 This is part of the Gaussian(R) 16 program.  It is based on
 the Gaussian(R) 09 system (copyright 2009, Gaussian, Inc.),
 the Gaussian(R) 03 system (copyright 2003, Gaussian, Inc.),
 the Gaussian(R) 98 system (copyright 1998, Gaussian, Inc.),
 the Gaussian(R) 94 system (copyright 1995, Gaussian, Inc.),
 the Gaussian 92(TM) system (copyright 1992, Gaussian, Inc.),
 the Gaussian 90(TM) system (copyright 1990, Gaussian, Inc.),
 the Gaussian 88(TM) system (copyright 1988, Gaussian, Inc.),
 the Gaussian 86(TM) system (copyright 1986, Carnegie Mellon
 University), and the Gaussian 82(TM) system (copyright 1983,
 Carnegie Mellon University). Gaussian is a federally registered
 trademark of Gaussian, Inc.
  
 This software contains proprietary and confidential information,
 including trade secrets, belonging to Gaussian, Inc.
  
 This software is provided under written license and may be
 used, copied, transmitted, or stored only in accord with that
 written license.
  
 The following legend is applicable only to US Government
 contracts under FAR:
  
                    RESTRICTED RIGHTS LEGEND
  
 Use, reproduction and disclosure by the US Government is
 subject to restrictions as set forth in subparagraphs (a)
 and (c) of the Commercial Computer Software - Restricted
 Rights clause in FAR 52.227-19.
  
 Gaussian, Inc.
 340 Quinnipiac St., Bldg. 40, Wallingford CT 06492
  
  
 ---------------------------------------------------------------
 Warning -- This program may not be used in any manner that
 competes with the business of Gaussian, Inc. or will provide
 assistance to any competitor of Gaussian, Inc.  The licensee
 of this program is prohibited from giving any competitor of
 Gaussian, Inc. access to this program.  By using this program,
 the user acknowledges that Gaussian, Inc. is engaged in the
 business of creating and licensing software in the field of
 computational chemistry and represents and warrants to the
 licensee that it is not a competitor of Gaussian, Inc. and that
 it will not use this program in any manner prohibited above.
 ---------------------------------------------------------------
  

 Cite this work as:
 Gaussian 16, Revision A.03,
 M. J. Frisch, G. W. Trucks, H. B. Schlegel, G. E. Scuseria, 
 M. A. Robb, J. R. Cheeseman, G. Scalmani, V. Barone, 
 G. A. Petersson, H. Nakatsuji, X. Li, M. Caricato, A. V. Marenich, 
 J. Bloino, B. G. Janesko, R. Gomperts, B. Mennucci, H. P. Hratchian, 
 J. V. Ortiz, A. F. Izmaylov, J. L. Sonnenberg, D. Williams-Young, 
 F. Ding, F. Lipparini, F. Egidi, J. Goings, B. Peng, A. Petrone, 
 T. Henderson, D. Ranasinghe, V. G. Zakrzewski, J. Gao, N. Rega, 
 G. Zheng, W. Liang, M. Hada, M. Ehara, K. Toyota, R. Fukuda, 
 J. Hasegawa, M. Ishida, T. Nakajima, Y. Honda, O. Kitao, H. Nakai, 
 T. Vreven, K. Throssell, J. A. Montgomery, Jr., J. E. Peralta, 
 F. Ogliaro, M. J. Bearpark, J. J. Heyd, E. N. Brothers, K. N. Kudin, 
 V. N. Staroverov, T. A. Keith, R. Kobayashi, J. Normand, 
 K. Raghavachari, A. P. Rendell, J. C. Burant, S. S. Iyengar, 
 J. Tomasi, M. Cossi, J. M. Millam, M. Klene, C. Adamo, R. Cammi, 
 J. W. Ochterski, R. L. Martin, K. Morokuma, O. Farkas, 
 J. B. Foresman, and D. J. Fox, Gaussian, Inc., Wallingford CT, 2016.
 
 ******************************************
 Gaussian 16:  ES64L-G16RevA.03 25-Dec-2016
                 3-Apr-2022 
 ******************************************
 ----------------------------------------------
 #p stable=opt 6-31g(d) nosymm guess=mix um062x
 ----------------------------------------------
 1/38=1,172=1/1;
 2/12=2,15=1,17=6,18=5,40=1/2;
 3/5=1,6=6,7=1,11=2,25=1,30=1,74=-55,116=2/1,2,3;
 4/13=-1/1;
 5/5=2,38=5/2;
 6/7=2,8=2,9=2,10=2,28=1/1;
 8/6=1,10=90,11=11/1;
 9/8=-3,42=1,46=1/14;
 5/5=2,8=3,17=40,38=5/8(-2);
 6/7=2,8=2,9=2,10=2,28=1/1;
 99/5=1,9=1/99;
 Leave Link    1 at Sun Apr  3 10:14:19 2022, MaxMem=           0 cpu:               0.0 elap:               0.0
 (Enter /apps/software/g16/l101.exe)
 ---------------------------
 tBuOOH guess=mix stable=opt
 ---------------------------
 Symbolic Z-matrix:
 Charge =  0 Multiplicity = 1
 C                    -3.59509  -0.40108   0.45021 
 C                    -2.07308  -0.37481   0.35839 
 H                    -3.98463   0.6201    0.49162 
 H                    -4.02038  -0.90135  -0.42275 
 H                    -3.91243  -0.93573   1.35097 
 C                    -1.49026  -1.78253   0.27088 
 C                    -1.46082   0.405     1.51713 
 H                    -0.40235  -1.73512   0.15502 
 H                    -1.71505  -2.34532   1.18174 
 H                    -1.91675  -2.3238   -0.57772 
 H                    -1.71481  -0.07708   2.46539 
 H                    -0.37177   0.44175   1.42259 
 H                    -1.84548   1.42841   1.52944 
 O                    -1.66578   0.40114  -0.7807 
 O                    -2.36683  -0.40606  -2.35135 
 H                    -1.55594  -0.76398  -2.74739 
 
 ITRead=  0  0  0  0  0  0  0  0  0  0  0  0  0  0  0  0
 MicOpt= -1 -1 -1 -1 -1 -1 -1 -1 -1 -1 -1 -1 -1 -1 -1 -1
 NAtoms=     16 NQM=       16 NQMF=       0 NMMI=      0 NMMIF=      0
                NMic=       0 NMicF=      0.
                    Isotopes and Nuclear Properties:
 (Nuclear quadrupole moments (NQMom) in fm**2, nuclear magnetic moments (NMagM)
  in nuclear magnetons)

  Atom         1           2           3           4           5           6           7           8           9          10
 IAtWgt=          12          12           1           1           1          12          12           1           1           1
 AtmWgt=  12.0000000  12.0000000   1.0078250   1.0078250   1.0078250  12.0000000  12.0000000   1.0078250   1.0078250   1.0078250
 NucSpn=           0           0           1           1           1           0           0           1           1           1
 AtZEff=  -0.0000000  -0.0000000  -0.0000000  -0.0000000  -0.0000000  -0.0000000  -0.0000000  -0.0000000  -0.0000000  -0.0000000
 NQMom=    0.0000000   0.0000000   0.0000000   0.0000000   0.0000000   0.0000000   0.0000000   0.0000000   0.0000000   0.0000000
 NMagM=    0.0000000   0.0000000   2.7928460   2.7928460   2.7928460   0.0000000   0.0000000   2.7928460   2.7928460   2.7928460
 AtZNuc=   6.0000000   6.0000000   1.0000000   1.0000000   1.0000000   6.0000000   6.0000000   1.0000000   1.0000000   1.0000000

  Atom        11          12          13          14          15          16
 IAtWgt=           1           1           1          16          16           1
 AtmWgt=   1.0078250   1.0078250   1.0078250  15.9949146  15.9949146   1.0078250
 NucSpn=           1           1           1           0           0           1
 AtZEff=  -0.0000000  -0.0000000  -0.0000000  -0.0000000  -0.0000000  -0.0000000
 NQMom=    0.0000000   0.0000000   0.0000000   0.0000000   0.0000000   0.0000000
 NMagM=    2.7928460   2.7928460   2.7928460   0.0000000   0.0000000   2.7928460
 AtZNuc=   1.0000000   1.0000000   1.0000000   8.0000000   8.0000000   1.0000000
 Leave Link  101 at Sun Apr  3 10:14:19 2022, MaxMem=   104857600 cpu:               0.1 elap:               0.1
 (Enter /apps/software/g16/l202.exe)
                          Input orientation:                          
 ---------------------------------------------------------------------
 Center     Atomic      Atomic             Coordinates (Angstroms)
 Number     Number       Type             X           Y           Z
 ---------------------------------------------------------------------
      1          6           0       -3.595094   -0.401084    0.450212
      2          6           0       -2.073081   -0.374814    0.358389
      3          1           0       -3.984630    0.620104    0.491617
      4          1           0       -4.020375   -0.901351   -0.422755
      5          1           0       -3.912427   -0.935728    1.350968
      6          6           0       -1.490255   -1.782526    0.270880
      7          6           0       -1.460815    0.405004    1.517128
      8          1           0       -0.402350   -1.735121    0.155019
      9          1           0       -1.715054   -2.345319    1.181736
     10          1           0       -1.916752   -2.323798   -0.577719
     11          1           0       -1.714814   -0.077084    2.465392
     12          1           0       -0.371766    0.441750    1.422586
     13          1           0       -1.845481    1.428409    1.529441
     14          8           0       -1.665776    0.401145   -0.780699
     15          8           0       -2.366826   -0.406064   -2.351350
     16          1           0       -1.555936   -0.763985   -2.747392
 ---------------------------------------------------------------------
                    Distance matrix (angstroms):
                    1          2          3          4          5
     1  C    0.000000
     2  C    1.525007   0.000000
     3  H    1.093745   2.159081   0.000000
     4  H    1.092338   2.163188   1.775438   0.000000
     5  H    1.094489   2.164031   1.778851   1.777337   0.000000
     6  C    2.524062   1.526105   3.470340   2.767509   2.783985
     7  C    2.518578   1.525012   2.732688   3.467140   2.799209
     8  H    3.472810   2.164056   4.300362   3.757539   3.793411
     9  H    2.801737   2.165404   3.797496   3.158155   2.616111
    10  H    2.751418   2.167781   3.753153   2.544130   3.103110
    11  H    2.775136   2.157883   3.087705   3.786347   2.609351
    12  H    3.470695   2.166510   3.735144   4.303667   3.799849
    13  H    2.751895   2.162123   2.511253   3.737515   3.145356
    14  O    2.425073   1.437196   2.654019   2.714545   3.373229
    15  O    3.058990   2.725793   3.428232   2.588246   4.046800
    16  H    3.809795   3.172502   4.278486   3.390615   4.730656
                    6          7          8          9         10
     6  C    0.000000
     7  C    2.517794   0.000000
     8  H    1.095084   2.748786   0.000000
     9  H    1.094043   2.782337   1.774734   0.000000
    10  H    1.093158   3.470248   1.782375   1.771109   0.000000
    11  H    2.788340   1.093677   3.132008   2.606274   3.788011
    12  H    2.743146   1.093762   2.519212   3.103254   3.746526
    13  H    3.467025   1.093379   3.738928   3.791956   4.303982
    14  O    2.430030   2.306953   2.652441   3.375892   2.743994
    15  O    3.088546   4.055097   3.450717   4.082673   2.650668
    16  H    3.186175   4.422863   3.270758   4.238394   2.696422
                   11         12         13         14         15
    11  H    0.000000
    12  H    1.777754   0.000000
    13  H    1.777523   1.776724   0.000000
    14  O    3.281496   2.555499   2.534623   0.000000
    15  O    4.871791   4.352200   4.324075   1.900000   0.000000
    16  H    5.260246   4.499419   4.814741   2.288553   0.970824
                   16
    16  H    0.000000
 Symmetry turned off by external request.
 Stoichiometry    C4H10O2
 Framework group  C1[X(C4H10O2)]
 Deg. of freedom    42
 Full point group                 C1      NOp   1
 Rotational constants (GHZ):           4.5049266           2.4334163           2.4211550
 Leave Link  202 at Sun Apr  3 10:14:19 2022, MaxMem=   104857600 cpu:               0.0 elap:               0.0
 (Enter /apps/software/g16/l301.exe)
 Standard basis: 6-31G(d) (6D, 7F)
 Ernie: Thresh=  0.10000D-02 Tol=  0.10000D-05 Strict=F.
   110 basis functions,   208 primitive gaussians,   110 cartesian basis functions
    25 alpha electrons       25 beta electrons
       nuclear repulsion energy       260.2456244823 Hartrees.
 IExCor= 4336 DFT=T Ex+Corr=M062X ExCW=0 ScaHFX=  0.540000
 ScaDFX=  1.000000  1.000000  1.000000  1.000000 ScalE2=  1.000000  1.000000
 IRadAn=      5 IRanWt=     -1 IRanGd=            0 ICorTp=0 IEmpDi=  4
 NAtoms=   16 NActive=   16 NUniq=   16 SFac= 1.00D+00 NAtFMM=   60 NAOKFM=F Big=F
 Integral buffers will be    131072 words long.
 Raffenetti 2 integral format.
 Two-electron integral symmetry is turned off.
 Leave Link  301 at Sun Apr  3 10:14:19 2022, MaxMem=   104857600 cpu:               0.0 elap:               0.0
 (Enter /apps/software/g16/l302.exe)
 NPDir=0 NMtPBC=     1 NCelOv=     1 NCel=       1 NClECP=     1 NCelD=      1
         NCelK=      1 NCelE2=     1 NClLst=     1 CellRange=     0.0.
 One-electron integrals computed using PRISM.
 NBasis=   110 RedAO= T EigKep=  3.36D-03  NBF=   110
 NBsUse=   110 1.00D-06 EigRej= -1.00D+00 NBFU=   110
 Precomputing XC quadrature grid using
 IXCGrd= 4 IRadAn=           5 IRanWt=          -1 IRanGd=           0 AccXCQ= 0.00D+00.
 Generated NRdTot=       0 NPtTot=           0 NUsed=           0 NTot=          32
 NSgBfM=   110   110   110   110   110 MxSgAt=    16 MxSgA2=    16.
 Leave Link  302 at Sun Apr  3 10:14:19 2022, MaxMem=   104857600 cpu:               0.3 elap:               0.3
 (Enter /apps/software/g16/l303.exe)
 DipDrv:  MaxL=1.
 Leave Link  303 at Sun Apr  3 10:14:19 2022, MaxMem=   104857600 cpu:               0.0 elap:               0.0
 (Enter /apps/software/g16/l401.exe)
 ExpMin= 1.61D-01 ExpMax= 5.48D+03 ExpMxC= 8.25D+02 IAcc=3 IRadAn=         5 AccDes= 0.00D+00
 Harris functional with IExCor= 1009 and IRadAn=       5 diagonalized for initial guess.
 HarFok:  IExCor= 1009 AccDes= 0.00D+00 IRadAn=         5 IDoV= 1 UseB2=F ITyADJ=14
 ICtDFT=  3500011 ScaDFX=  1.000000  1.000000  1.000000  1.000000
 FoFCou: FMM=F IPFlag=           0 FMFlag=      100000 FMFlg1=           0
         NFxFlg=           0 DoJE=T BraDBF=F KetDBF=T FulRan=T
         wScrn=  0.000000 ICntrl=       500 IOpCl=  0 I1Cent=   200000004 NGrid=           0
         NMat0=    1 NMatS0=      1 NMatT0=    0 NMatD0=    1 NMtDS0=    0 NMtDT0=    0
 Symmetry not used in FoFCou.
 Harris En= -308.530983589238    
 JPrj=0 DoOrth=F DoCkMO=T.
 Mixing orbitals, IMix= 1 IMixAn=  0 NRI=1 NE=   25 Coef=  7.07106781D-01  7.07106781D-01
 Mixing orbitals, IMix= 1 IMixAn=  0 NRI=1 NE=   25 Coef= -7.07106781D-01  7.07106781D-01
 Initial guess <Sx>= 0.0000 <Sy>= 0.0000 <Sz>= 0.0000 <S**2>= 1.0000 S= 0.6180
 Leave Link  401 at Sun Apr  3 10:14:21 2022, MaxMem=   104857600 cpu:               2.0 elap:               2.0
 (Enter /apps/software/g16/l502.exe)
 Keep R1 and R2 ints in memory in canonical form, NReq=38212939.
 FoFCou: FMM=F IPFlag=           0 FMFlag=           0 FMFlg1=           0
         NFxFlg=           0 DoJE=F BraDBF=F KetDBF=F FulRan=T
         wScrn=  0.000000 ICntrl=       600 IOpCl=  0 I1Cent=           0 NGrid=           0
         NMat0=    1 NMatS0=   6105 NMatT0=    0 NMatD0=    1 NMtDS0=    0 NMtDT0=    0
 Symmetry not used in FoFCou.
 Two-electron integral symmetry not used.
 UHF open shell SCF:
 Using DIIS extrapolation, IDIIS=  1040.
 NGot=   104857600 LenX=    67554392 LenY=    67541851
 Requested convergence on RMS density matrix=1.00D-08 within 128 cycles.
 Requested convergence on MAX density matrix=1.00D-06.
 Requested convergence on             energy=1.00D-06.
 No special actions if energy rises.
 Integral accuracy reduced to 1.0D-05 until final iterations.

 Cycle   1  Pass 0  IDiag  1:
 E= -308.246870475691    
 DIIS: error= 4.87D-02 at cycle   1 NSaved=   1.
 NSaved= 1 IEnMin= 1 EnMin= -308.246870475691     IErMin= 1 ErrMin= 4.87D-02
 ErrMax= 4.87D-02  0.00D+00 EMaxC= 1.00D-01 BMatC= 1.23D+00 BMatP= 1.23D+00
 IDIUse=3 WtCom= 5.13D-01 WtEn= 4.87D-01
 Coeff-Com:  0.100D+01
 Coeff-En:   0.100D+01
 Coeff:      0.100D+01
 Gap=     0.259 Goal=   None    Shift=    0.000
 Gap=     0.242 Goal=   None    Shift=    0.000
 GapD=    0.242 DampG=1.000 DampE=0.500 DampFc=0.5000 IDamp=-1.
 Damping current iteration by 5.00D-01
 RMSDP=9.55D-03 MaxDP=2.55D-01              OVMax= 4.70D-01

 Cycle   2  Pass 0  IDiag  1:
 E= -308.332348012042     Delta-E=       -0.085477536350 Rises=F Damp=T
 DIIS: error= 2.77D-02 at cycle   2 NSaved=   2.
 NSaved= 2 IEnMin= 2 EnMin= -308.332348012042     IErMin= 2 ErrMin= 2.77D-02
 ErrMax= 2.77D-02  0.00D+00 EMaxC= 1.00D-01 BMatC= 3.18D-01 BMatP= 1.23D+00
 IDIUse=3 WtCom= 7.23D-01 WtEn= 2.77D-01
 Coeff-Com:  0.248D+00 0.752D+00
 Coeff-En:   0.328D+00 0.672D+00
 Coeff:      0.271D+00 0.729D+00
 Gap=     0.256 Goal=   None    Shift=    0.000
 Gap=     0.258 Goal=   None    Shift=    0.000
 RMSDP=3.79D-03 MaxDP=9.87D-02 DE=-8.55D-02 OVMax= 3.38D-01

 Cycle   3  Pass 0  IDiag  1:
 E= -308.506896021616     Delta-E=       -0.174548009574 Rises=F Damp=F
 DIIS: error= 2.39D-02 at cycle   3 NSaved=   3.
 NSaved= 3 IEnMin= 3 EnMin= -308.506896021616     IErMin= 3 ErrMin= 2.39D-02
 ErrMax= 2.39D-02  0.00D+00 EMaxC= 1.00D-01 BMatC= 2.58D-01 BMatP= 3.18D-01
 IDIUse=3 WtCom= 7.61D-01 WtEn= 2.39D-01
 Coeff-Com:  0.430D-01 0.460D+00 0.497D+00
 Coeff-En:   0.000D+00 0.000D+00 0.100D+01
 Coeff:      0.327D-01 0.350D+00 0.618D+00
 Gap=     0.254 Goal=   None    Shift=    0.000
 Gap=     0.244 Goal=   None    Shift=    0.000
 RMSDP=3.07D-03 MaxDP=9.67D-02 DE=-1.75D-01 OVMax= 2.24D-01

 Cycle   4  Pass 0  IDiag  1:
 E= -308.543638377108     Delta-E=       -0.036742355492 Rises=F Damp=F
 DIIS: error= 1.97D-02 at cycle   4 NSaved=   4.
 NSaved= 4 IEnMin= 4 EnMin= -308.543638377108     IErMin= 4 ErrMin= 1.97D-02
 ErrMax= 1.97D-02  0.00D+00 EMaxC= 1.00D-01 BMatC= 1.52D-01 BMatP= 2.58D-01
 IDIUse=3 WtCom= 8.03D-01 WtEn= 1.97D-01
 Coeff-Com:  0.523D-01-0.964D-01 0.380D+00 0.664D+00
 Coeff-En:   0.000D+00 0.000D+00 0.335D+00 0.665D+00
 Coeff:      0.420D-01-0.774D-01 0.371D+00 0.664D+00
 Gap=     0.288 Goal=   None    Shift=    0.000
 Gap=     0.266 Goal=   None    Shift=    0.000
 RMSDP=1.41D-03 MaxDP=3.71D-02 DE=-3.67D-02 OVMax= 8.48D-02

 Cycle   5  Pass 0  IDiag  1:
 E= -308.578889604150     Delta-E=       -0.035251227042 Rises=F Damp=F
 DIIS: error= 4.37D-03 at cycle   5 NSaved=   5.
 NSaved= 5 IEnMin= 5 EnMin= -308.578889604150     IErMin= 5 ErrMin= 4.37D-03
 ErrMax= 4.37D-03  0.00D+00 EMaxC= 1.00D-01 BMatC= 3.07D-03 BMatP= 1.52D-01
 IDIUse=3 WtCom= 9.56D-01 WtEn= 4.37D-02
 Coeff-Com: -0.204D-01 0.127D-01-0.324D-01 0.145D-02 0.104D+01
 Coeff-En:   0.000D+00 0.000D+00 0.000D+00 0.000D+00 0.100D+01
 Coeff:     -0.196D-01 0.122D-01-0.310D-01 0.139D-02 0.104D+01
 Gap=     0.272 Goal=   None    Shift=    0.000
 Gap=     0.264 Goal=   None    Shift=    0.000
 RMSDP=7.79D-04 MaxDP=1.84D-02 DE=-3.53D-02 OVMax= 5.93D-02

 Cycle   6  Pass 0  IDiag  1:
 E= -308.583518385379     Delta-E=       -0.004628781229 Rises=F Damp=F
 DIIS: error= 2.79D-03 at cycle   6 NSaved=   6.
 NSaved= 6 IEnMin= 6 EnMin= -308.583518385379     IErMin= 6 ErrMin= 2.79D-03
 ErrMax= 2.79D-03  0.00D+00 EMaxC= 1.00D-01 BMatC= 1.48D-03 BMatP= 3.07D-03
 IDIUse=3 WtCom= 9.72D-01 WtEn= 2.79D-02
 Coeff-Com: -0.200D-01 0.391D-01-0.989D-01-0.172D+00 0.422D+00 0.830D+00
 Coeff-En:   0.000D+00 0.000D+00 0.000D+00 0.000D+00 0.000D+00 0.100D+01
 Coeff:     -0.194D-01 0.380D-01-0.962D-01-0.167D+00 0.410D+00 0.835D+00
 Gap=     0.275 Goal=   None    Shift=    0.000
 Gap=     0.267 Goal=   None    Shift=    0.000
 RMSDP=5.76D-04 MaxDP=1.46D-02 DE=-4.63D-03 OVMax= 3.90D-02

 Cycle   7  Pass 0  IDiag  1:
 E= -308.586117510270     Delta-E=       -0.002599124891 Rises=F Damp=F
 DIIS: error= 2.05D-03 at cycle   7 NSaved=   7.
 NSaved= 7 IEnMin= 7 EnMin= -308.586117510270     IErMin= 7 ErrMin= 2.05D-03
 ErrMax= 2.05D-03  0.00D+00 EMaxC= 1.00D-01 BMatC= 6.31D-04 BMatP= 1.48D-03
 IDIUse=3 WtCom= 9.79D-01 WtEn= 2.05D-02
 Coeff-Com:  0.144D-01-0.129D-01 0.216D-01 0.284D-01-0.777D+00-0.148D+00
 Coeff-Com:  0.187D+01
 Coeff-En:   0.000D+00 0.000D+00 0.000D+00 0.000D+00 0.000D+00 0.000D+00
 Coeff-En:   0.100D+01
 Coeff:      0.141D-01-0.126D-01 0.211D-01 0.278D-01-0.762D+00-0.145D+00
 Coeff:      0.186D+01
 Gap=     0.277 Goal=   None    Shift=    0.000
 Gap=     0.270 Goal=   None    Shift=    0.000
 RMSDP=1.11D-03 MaxDP=2.66D-02 DE=-2.60D-03 OVMax= 8.75D-02

 Cycle   8  Pass 0  IDiag  1:
 E= -308.589391481047     Delta-E=       -0.003273970776 Rises=F Damp=F
 DIIS: error= 1.19D-03 at cycle   8 NSaved=   8.
 NSaved= 8 IEnMin= 8 EnMin= -308.589391481047     IErMin= 8 ErrMin= 1.19D-03
 ErrMax= 1.19D-03  0.00D+00 EMaxC= 1.00D-01 BMatC= 2.38D-04 BMatP= 6.31D-04
 IDIUse=3 WtCom= 9.88D-01 WtEn= 1.19D-02
 Coeff-Com:  0.286D-02-0.819D-02 0.433D-01 0.822D-01-0.828D-01-0.266D+00
 Coeff-Com: -0.380D+00 0.161D+01
 Coeff-En:   0.000D+00 0.000D+00 0.000D+00 0.000D+00 0.000D+00 0.000D+00
 Coeff-En:   0.000D+00 0.100D+01
 Coeff:      0.282D-02-0.809D-02 0.428D-01 0.812D-01-0.819D-01-0.263D+00
 Coeff:     -0.376D+00 0.160D+01
 Gap=     0.277 Goal=   None    Shift=    0.000
 Gap=     0.270 Goal=   None    Shift=    0.000
 RMSDP=7.77D-04 MaxDP=1.77D-02 DE=-3.27D-03 OVMax= 5.93D-02

 Cycle   9  Pass 0  IDiag  1:
 E= -308.590668157509     Delta-E=       -0.001276676462 Rises=F Damp=F
 DIIS: error= 7.97D-04 at cycle   9 NSaved=   9.
 NSaved= 9 IEnMin= 9 EnMin= -308.590668157509     IErMin= 9 ErrMin= 7.97D-04
 ErrMax= 7.97D-04  0.00D+00 EMaxC= 1.00D-01 BMatC= 8.34D-05 BMatP= 2.38D-04
 IDIUse=3 WtCom= 9.92D-01 WtEn= 7.97D-03
 Coeff-Com: -0.294D-02-0.656D-03 0.140D-01 0.235D-01 0.189D+00-0.501D-01
 Coeff-Com: -0.791D+00 0.548D+00 0.107D+01
 Coeff-En:   0.000D+00 0.000D+00 0.000D+00 0.000D+00 0.000D+00 0.000D+00
 Coeff-En:   0.000D+00 0.000D+00 0.100D+01
 Coeff:     -0.292D-02-0.651D-03 0.138D-01 0.233D-01 0.187D+00-0.497D-01
 Coeff:     -0.785D+00 0.544D+00 0.107D+01
 Gap=     0.276 Goal=   None    Shift=    0.000
 Gap=     0.271 Goal=   None    Shift=    0.000
 RMSDP=5.16D-04 MaxDP=1.27D-02 DE=-1.28D-03 OVMax= 3.86D-02

 Cycle  10  Pass 0  IDiag  1:
 E= -308.591136355027     Delta-E=       -0.000468197518 Rises=F Damp=F
 DIIS: error= 5.46D-04 at cycle  10 NSaved=  10.
 NSaved=10 IEnMin=10 EnMin= -308.591136355027     IErMin=10 ErrMin= 5.46D-04
 ErrMax= 5.46D-04  0.00D+00 EMaxC= 1.00D-01 BMatC= 3.64D-05 BMatP= 8.34D-05
 IDIUse=3 WtCom= 9.95D-01 WtEn= 5.46D-03
 Coeff-Com: -0.704D-03 0.263D-02-0.113D-01-0.259D-01 0.240D-01 0.113D+00
 Coeff-Com:  0.775D-01-0.612D+00 0.152D+00 0.128D+01
 Coeff-En:   0.000D+00 0.000D+00 0.000D+00 0.000D+00 0.000D+00 0.000D+00
 Coeff-En:   0.000D+00 0.000D+00 0.000D+00 0.100D+01
 Coeff:     -0.700D-03 0.262D-02-0.112D-01-0.257D-01 0.239D-01 0.112D+00
 Coeff:      0.771D-01-0.609D+00 0.151D+00 0.128D+01
 Gap=     0.275 Goal=   None    Shift=    0.000
 Gap=     0.269 Goal=   None    Shift=    0.000
 RMSDP=3.04D-04 MaxDP=8.46D-03 DE=-4.68D-04 OVMax= 2.17D-02

 Cycle  11  Pass 0  IDiag  1:
 E= -308.591334457898     Delta-E=       -0.000198102871 Rises=F Damp=F
 DIIS: error= 4.61D-04 at cycle  11 NSaved=  11.
 NSaved=11 IEnMin=11 EnMin= -308.591334457898     IErMin=11 ErrMin= 4.61D-04
 ErrMax= 4.61D-04  0.00D+00 EMaxC= 1.00D-01 BMatC= 2.48D-05 BMatP= 3.64D-05
 IDIUse=3 WtCom= 9.95D-01 WtEn= 4.61D-03
 Coeff-Com: -0.276D-03 0.157D-02-0.426D-02-0.106D-01 0.796D-02 0.369D-01
 Coeff-Com:  0.354D-01-0.188D+00 0.675D-02 0.341D+00 0.773D+00
 Coeff-En:   0.000D+00 0.000D+00 0.000D+00 0.000D+00 0.000D+00 0.000D+00
 Coeff-En:   0.000D+00 0.000D+00 0.000D+00 0.000D+00 0.100D+01
 Coeff:     -0.274D-03 0.156D-02-0.424D-02-0.105D-01 0.792D-02 0.368D-01
 Coeff:      0.353D-01-0.187D+00 0.672D-02 0.340D+00 0.774D+00
 Gap=     0.275 Goal=   None    Shift=    0.000
 Gap=     0.270 Goal=   None    Shift=    0.000
 RMSDP=6.72D-05 MaxDP=1.53D-03 DE=-1.98D-04 OVMax= 5.82D-03

 Cycle  12  Pass 0  IDiag  1:
 E= -308.591394164513     Delta-E=       -0.000059706616 Rises=F Damp=F
 DIIS: error= 4.73D-04 at cycle  12 NSaved=  12.
 NSaved=12 IEnMin=12 EnMin= -308.591394164513     IErMin=11 ErrMin= 4.61D-04
 ErrMax= 4.73D-04  0.00D+00 EMaxC= 1.00D-01 BMatC= 2.57D-05 BMatP= 2.48D-05
 IDIUse=3 WtCom= 9.95D-01 WtEn= 4.61D-03
 Coeff-Com: -0.817D-04 0.155D-02-0.511D-02-0.122D-01-0.432D-02 0.396D-01
 Coeff-Com:  0.826D-01-0.233D+00-0.377D-01 0.402D+00 0.159D+01-0.824D+00
 Coeff-En:   0.000D+00 0.000D+00 0.000D+00 0.000D+00 0.000D+00 0.000D+00
 Coeff-En:   0.000D+00 0.000D+00 0.000D+00 0.000D+00 0.000D+00 0.100D+01
 Coeff:     -0.813D-04 0.154D-02-0.508D-02-0.121D-01-0.430D-02 0.394D-01
 Coeff:      0.822D-01-0.232D+00-0.375D-01 0.400D+00 0.158D+01-0.816D+00
 Gap=     0.275 Goal=   None    Shift=    0.000
 Gap=     0.270 Goal=   None    Shift=    0.000
 RMSDP=4.85D-05 MaxDP=9.81D-04 DE=-5.97D-05 OVMax= 4.18D-03

 Cycle  13  Pass 0  IDiag  1:
 E= -308.591349529010     Delta-E=        0.000044635503 Rises=F Damp=F
 DIIS: error= 4.50D-04 at cycle  13 NSaved=  13.
 NSaved=13 IEnMin=12 EnMin= -308.591394164513     IErMin=13 ErrMin= 4.50D-04
 ErrMax= 4.50D-04  0.00D+00 EMaxC= 1.00D-01 BMatC= 2.45D-05 BMatP= 2.48D-05
 IDIUse=3 WtCom= 9.96D-01 WtEn= 4.50D-03
 Rare condition: small coef for last iteration:  0.000D+00
 Coeff-Com:  0.254D-04 0.102D-02 0.844D-03 0.135D-02-0.508D-02-0.165D-01
 Coeff-Com:  0.246D-01 0.842D-01-0.136D+00-0.315D+00 0.161D+01-0.597D+01
 Coeff-Com:  0.572D+01
 Coeff-En:   0.000D+00 0.000D+00 0.000D+00 0.000D+00 0.000D+00 0.000D+00
 Coeff-En:   0.000D+00 0.000D+00 0.000D+00 0.000D+00 0.000D+00 0.000D+00
 Coeff-En:   0.100D+01
 Coeff:      0.254D-04 0.102D-02 0.844D-03 0.135D-02-0.508D-02-0.165D-01
 Coeff:      0.246D-01 0.842D-01-0.136D+00-0.315D+00 0.161D+01-0.597D+01
 Coeff:      0.572D+01
 Gap=     0.274 Goal=   None    Shift=    0.000
 Gap=     0.269 Goal=   None    Shift=    0.000
 RMSDP=2.01D-04 MaxDP=4.89D-03 DE= 4.46D-05 OVMax= 1.61D-02

 Cycle  14  Pass 0  IDiag  1:
 E= -308.591183820285     Delta-E=        0.000165708725 Rises=F Damp=F
 DIIS: error= 4.09D-04 at cycle  14 NSaved=  14.
 NSaved=14 IEnMin=12 EnMin= -308.591394164513     IErMin=14 ErrMin= 4.09D-04
 ErrMax= 4.09D-04  0.00D+00 EMaxC= 1.00D-01 BMatC= 2.01D-05 BMatP= 2.45D-05
 IDIUse=3 WtCom= 9.96D-01 WtEn= 4.09D-03
 Rare condition: small coef for last iteration:  0.000D+00
 Coeff-Com: -0.134D-02 0.154D-02 0.470D-02 0.535D-02 0.782D-01-0.319D-01
 Coeff-Com: -0.307D+00 0.453D+00 0.122D+00-0.946D+00-0.324D+01-0.228D+01
 Coeff-Com:  0.405D+01 0.310D+01
 Coeff-En:   0.000D+00 0.000D+00 0.000D+00 0.000D+00 0.000D+00 0.000D+00
 Coeff-En:   0.000D+00 0.000D+00 0.000D+00 0.000D+00 0.000D+00 0.000D+00
 Coeff-En:   0.000D+00 0.100D+01
 Coeff:     -0.134D-02 0.154D-02 0.470D-02 0.535D-02 0.782D-01-0.319D-01
 Coeff:     -0.307D+00 0.453D+00 0.122D+00-0.946D+00-0.324D+01-0.228D+01
 Coeff:      0.405D+01 0.310D+01
 Gap=     0.272 Goal=   None    Shift=    0.000
 Gap=     0.270 Goal=   None    Shift=    0.000
 RMSDP=4.21D-04 MaxDP=1.14D-02 DE= 1.66D-04 OVMax= 2.97D-02

 Problem detected with inexpensive integrals.
 Switching to full accuracy and repeating last cycle.
 Cycle  15  Pass 1  IDiag  1:
 E= -308.591216028121     Delta-E=       -0.000032207836 Rises=F Damp=F
 DIIS: error= 4.05D-04 at cycle   1 NSaved=   1.
 NSaved= 1 IEnMin= 1 EnMin= -308.591216028121     IErMin= 1 ErrMin= 4.05D-04
 ErrMax= 4.05D-04  0.00D+00 EMaxC= 1.00D-01 BMatC= 2.01D-05 BMatP= 2.01D-05
 IDIUse=3 WtCom= 9.96D-01 WtEn= 4.05D-03
 Coeff-Com:  0.100D+01
 Coeff-En:   0.100D+01
 Coeff:      0.100D+01
 Gap=     0.274 Goal=   None    Shift=    0.000
 Gap=     0.269 Goal=   None    Shift=    0.000
 RMSDP=6.50D-05 MaxDP=1.37D-03 DE=-3.22D-05 OVMax= 5.35D-03

 Cycle  16  Pass 1  IDiag  1:
 E= -308.591265348555     Delta-E=       -0.000049320434 Rises=F Damp=F
 DIIS: error= 4.31D-04 at cycle   2 NSaved=   2.
 NSaved= 2 IEnMin= 2 EnMin= -308.591265348555     IErMin= 1 ErrMin= 4.05D-04
 ErrMax= 4.31D-04  0.00D+00 EMaxC= 1.00D-01 BMatC= 2.44D-05 BMatP= 2.01D-05
 IDIUse=3 WtCom= 3.25D-01 WtEn= 6.75D-01
 Coeff-Com:  0.668D+00 0.332D+00
 Coeff-En:   0.000D+00 0.100D+01
 Coeff:      0.217D+00 0.783D+00
 Gap=     0.275 Goal=   None    Shift=    0.000
 Gap=     0.270 Goal=   None    Shift=    0.000
 RMSDP=5.37D-05 MaxDP=1.26D-03 DE=-4.93D-05 OVMax= 5.37D-03

 Cycle  17  Pass 1  IDiag  1:
 E= -308.591304049038     Delta-E=       -0.000038700482 Rises=F Damp=F
 DIIS: error= 5.64D-04 at cycle   3 NSaved=   3.
 NSaved= 3 IEnMin= 3 EnMin= -308.591304049038     IErMin= 1 ErrMin= 4.05D-04
 ErrMax= 5.64D-04  0.00D+00 EMaxC= 1.00D-01 BMatC= 3.47D-05 BMatP= 2.01D-05
 IDIUse=3 WtCom= 2.96D-01 WtEn= 7.04D-01
 Coeff-Com:  0.577D+00 0.367D+00 0.558D-01
 Coeff-En:   0.000D+00 0.000D+00 0.100D+01
 Coeff:      0.171D+00 0.109D+00 0.720D+00
 Gap=     0.274 Goal=   None    Shift=    0.000
 Gap=     0.269 Goal=   None    Shift=    0.000
 RMSDP=4.94D-05 MaxDP=1.71D-03 DE=-3.87D-05 OVMax= 4.64D-03

 Cycle  18  Pass 1  IDiag  1:
 E= -308.591332201269     Delta-E=       -0.000028152231 Rises=F Damp=F
 DIIS: error= 6.63D-04 at cycle   4 NSaved=   4.
 NSaved= 4 IEnMin= 4 EnMin= -308.591332201269     IErMin= 1 ErrMin= 4.05D-04
 ErrMax= 6.63D-04  0.00D+00 EMaxC= 1.00D-01 BMatC= 5.99D-05 BMatP= 2.01D-05
 IDIUse=3 WtCom= 2.80D-01 WtEn= 7.20D-01
 Coeff-Com:  0.777D+00 0.137D+01-0.469D+00-0.678D+00
 Coeff-En:   0.000D+00 0.000D+00 0.000D+00 0.100D+01
 Coeff:      0.217D+00 0.383D+00-0.131D+00 0.531D+00
 Gap=     0.275 Goal=   None    Shift=    0.000
 Gap=     0.270 Goal=   None    Shift=    0.000
 RMSDP=4.94D-05 MaxDP=1.54D-03 DE=-2.82D-05 OVMax= 2.98D-03

 Cycle  19  Pass 1  IDiag  1:
 E= -308.591319323500     Delta-E=        0.000012877769 Rises=F Damp=F
 DIIS: error= 9.01D-04 at cycle   5 NSaved=   5.
 NSaved= 5 IEnMin= 4 EnMin= -308.591332201269     IErMin= 1 ErrMin= 4.05D-04
 ErrMax= 9.01D-04  0.00D+00 EMaxC= 1.00D-01 BMatC= 1.37D-04 BMatP= 2.01D-05
 IDIUse=3 WtCom= 2.50D-01 WtEn= 7.50D-01
 Large coefficients: NSaved=  5 BigCof=   14.52 CofMax=   10.00 Det=-2.11D-08
 Inversion failed.  Reducing to  4 matrices.
 Coeff-Com:  0.222D+01 0.489D+01-0.306D+01-0.306D+01
 Coeff-En:   0.000D+00 0.000D+00 0.657D+00 0.343D+00
 Coeff:      0.556D+00 0.122D+01-0.273D+00-0.506D+00
 Gap=     0.274 Goal=   None    Shift=    0.000
 Gap=     0.270 Goal=   None    Shift=    0.000
 RMSDP=4.93D-05 MaxDP=1.56D-03 DE= 1.29D-05 OVMax= 4.95D-03

 Cycle  20  Pass 1  IDiag  1:
 E= -308.591309121733     Delta-E=        0.000010201767 Rises=F Damp=F
 DIIS: error= 4.24D-04 at cycle   6 NSaved=   5.
 NSaved= 5 IEnMin= 3 EnMin= -308.591332201269     IErMin= 5 ErrMin= 4.24D-04
 ErrMax= 4.24D-04  0.00D+00 EMaxC= 1.00D-01 BMatC= 2.04D-05 BMatP= 2.44D-05
 IDIUse=3 WtCom= 9.96D-01 WtEn= 4.24D-03
 Large coefficients: NSaved=  5 BigCof=   44.12 CofMax=   10.00 Det=-1.98D-08
 Inversion failed.  Reducing to  4 matrices.
 Large coefficients: NSaved=  4 BigCof=   28.05 CofMax=   10.00 Det=-5.02D-08
 Inversion failed.  Reducing to  3 matrices.
 Large coefficients: NSaved=  3 BigCof=   16.41 CofMax=   10.00 Det=-1.08D-07
 Inversion failed.  Reducing to  2 matrices.
 Coeff-Com: -0.962D-01 0.110D+01
 Coeff-En:   0.000D+00 0.100D+01
 Coeff:     -0.958D-01 0.110D+01
 Gap=     0.275 Goal=   None    Shift=    0.000
 Gap=     0.270 Goal=   None    Shift=    0.000
 RMSDP=6.12D-05 MaxDP=1.22D-03 DE= 1.02D-05 OVMax= 5.17D-03

 Cycle  21  Pass 1  IDiag  1:
 E= -308.591360161833     Delta-E=       -0.000051040100 Rises=F Damp=F
 DIIS: error= 4.21D-04 at cycle   7 NSaved=   3.
 NSaved= 3 IEnMin= 3 EnMin= -308.591360161833     IErMin= 3 ErrMin= 4.21D-04
 ErrMax= 4.21D-04  0.00D+00 EMaxC= 1.00D-01 BMatC= 2.13D-05 BMatP= 2.04D-05
 IDIUse=3 WtCom= 9.96D-01 WtEn= 4.21D-03
 Coeff-Com: -0.456D+00 0.765D+01-0.619D+01
 Coeff-En:   0.000D+00 0.000D+00 0.100D+01
 Coeff:     -0.454D+00 0.761D+01-0.616D+01
 Gap=     0.273 Goal=   None    Shift=    0.000
 Gap=     0.269 Goal=   None    Shift=    0.000
 RMSDP=4.07D-04 MaxDP=8.49D-03 DE=-5.10D-05 OVMax= 3.42D-02

 Cycle  22  Pass 1  IDiag  1:
 E= -308.591064306415     Delta-E=        0.000295855419 Rises=F Damp=F
 DIIS: error= 3.72D-04 at cycle   8 NSaved=   4.
 NSaved= 4 IEnMin= 3 EnMin= -308.591360161833     IErMin= 4 ErrMin= 3.72D-04
 ErrMax= 3.72D-04  0.00D+00 EMaxC= 1.00D-01 BMatC= 1.32D-05 BMatP= 2.04D-05
 IDIUse=3 WtCom= 9.96D-01 WtEn= 3.72D-03
 Large coefficients: NSaved=  4 BigCof=   14.29 CofMax=   10.00 Det=-9.63D-09
 Inversion failed.  Reducing to  3 matrices.
 Rare condition: small coef for last iteration:  0.000D+00
 Coeff-Com: -0.864D-01-0.376D+00 0.146D+01
 Coeff-En:   0.000D+00 0.000D+00 0.100D+01
 Coeff:     -0.864D-01-0.376D+00 0.146D+01
 Gap=     0.272 Goal=   None    Shift=    0.000
 Gap=     0.270 Goal=   None    Shift=    0.000
 RMSDP=1.52D-04 MaxDP=3.87D-03 DE= 2.96D-04 OVMax= 1.20D-02

 Cycle  23  Pass 1  IDiag  1:
 E= -308.590994614539     Delta-E=        0.000069691875 Rises=F Damp=F
 DIIS: error= 3.64D-04 at cycle   9 NSaved=   4.
 NSaved= 4 IEnMin= 2 EnMin= -308.591360161833     IErMin= 4 ErrMin= 3.64D-04
 ErrMax= 3.64D-04  0.00D+00 EMaxC= 1.00D-01 BMatC= 9.19D-06 BMatP= 1.32D-05
 IDIUse=3 WtCom= 9.96D-01 WtEn= 3.64D-03
 Rare condition: small coef for last iteration:  0.000D+00
 Coeff-Com:  0.106D+00 0.309D+00-0.293D+01 0.352D+01
 Coeff-En:   0.000D+00 0.000D+00 0.000D+00 0.100D+01
 Coeff:      0.106D+00 0.309D+00-0.293D+01 0.352D+01
 Gap=     0.271 Goal=   None    Shift=    0.000
 Gap=     0.270 Goal=   None    Shift=    0.000
 RMSDP=2.15D-04 MaxDP=7.56D-03 DE= 6.97D-05 OVMax= 1.39D-02

 Cycle  24  Pass 1  IDiag  1:
 E= -308.590953266254     Delta-E=        0.000041348286 Rises=F Damp=F
 DIIS: error= 2.38D-04 at cycle  10 NSaved=   5.
 NSaved= 5 IEnMin= 2 EnMin= -308.591360161833     IErMin= 5 ErrMin= 2.38D-04
 ErrMax= 2.38D-04  0.00D+00 EMaxC= 1.00D-01 BMatC= 4.80D-06 BMatP= 9.19D-06
 IDIUse=3 WtCom= 9.98D-01 WtEn= 2.38D-03
 Rare condition: small coef for last iteration:  0.000D+00
 Coeff-Com:  0.114D+00 0.471D+00-0.284D+01 0.219D+01 0.107D+01
 Coeff-En:   0.000D+00 0.000D+00 0.000D+00 0.000D+00 0.100D+01
 Coeff:      0.114D+00 0.471D+00-0.284D+01 0.219D+01 0.107D+01
 Gap=     0.271 Goal=   None    Shift=    0.000
 Gap=     0.270 Goal=   None    Shift=    0.000
 RMSDP=1.40D-04 MaxDP=5.57D-03 DE= 4.13D-05 OVMax= 9.88D-03

 Cycle  25  Pass 1  IDiag  1:
 E= -308.590950003421     Delta-E=        0.000003262833 Rises=F Damp=F
 DIIS: error= 1.44D-04 at cycle  11 NSaved=   6.
 NSaved= 6 IEnMin= 2 EnMin= -308.591360161833     IErMin= 6 ErrMin= 1.44D-04
 ErrMax= 1.44D-04  0.00D+00 EMaxC= 1.00D-01 BMatC= 1.48D-06 BMatP= 4.80D-06
 IDIUse=3 WtCom= 9.99D-01 WtEn= 1.44D-03
 Rare condition: small coef for last iteration:  0.000D+00
 Coeff-Com: -0.652D-01-0.284D+00 0.189D+01-0.194D+01-0.240D+00 0.163D+01
 Coeff-En:   0.000D+00 0.000D+00 0.000D+00 0.000D+00 0.000D+00 0.100D+01
 Coeff:     -0.652D-01-0.284D+00 0.189D+01-0.194D+01-0.240D+00 0.163D+01
 Gap=     0.271 Goal=   None    Shift=    0.000
 Gap=     0.271 Goal=   None    Shift=    0.000
 RMSDP=7.59D-05 MaxDP=2.94D-03 DE= 3.26D-06 OVMax= 5.40D-03

 Cycle  26  Pass 1  IDiag  1:
 E= -308.590953441519     Delta-E=       -0.000003438099 Rises=F Damp=F
 DIIS: error= 8.68D-05 at cycle  12 NSaved=   7.
 NSaved= 7 IEnMin= 2 EnMin= -308.591360161833     IErMin= 7 ErrMin= 8.68D-05
 ErrMax= 8.68D-05  0.00D+00 EMaxC= 1.00D-01 BMatC= 6.47D-07 BMatP= 1.48D-06
 IDIUse=1 WtCom= 1.00D+00 WtEn= 0.00D+00
 Coeff-Com: -0.738D-01-0.239D+00 0.163D+01-0.141D+01-0.494D+00 0.516D+00
 Coeff-Com:  0.107D+01
 Coeff:     -0.738D-01-0.239D+00 0.163D+01-0.141D+01-0.494D+00 0.516D+00
 Coeff:      0.107D+01
 Gap=     0.271 Goal=   None    Shift=    0.000
 Gap=     0.271 Goal=   None    Shift=    0.000
 RMSDP=3.43D-05 MaxDP=1.23D-03 DE=-3.44D-06 OVMax= 2.78D-03

 Cycle  27  Pass 1  IDiag  1:
 E= -308.590955857184     Delta-E=       -0.000002415665 Rises=F Damp=F
 DIIS: error= 4.81D-05 at cycle  13 NSaved=   8.
 NSaved= 8 IEnMin= 2 EnMin= -308.591360161833     IErMin= 8 ErrMin= 4.81D-05
 ErrMax= 4.81D-05  0.00D+00 EMaxC= 1.00D-01 BMatC= 2.70D-07 BMatP= 6.47D-07
 IDIUse=1 WtCom= 1.00D+00 WtEn= 0.00D+00
 Coeff-Com:  0.267D-01 0.127D+00-0.745D+00 0.779D+00 0.256D-01-0.712D+00
 Coeff-Com:  0.234D+00 0.127D+01
 Coeff:      0.267D-01 0.127D+00-0.745D+00 0.779D+00 0.256D-01-0.712D+00
 Coeff:      0.234D+00 0.127D+01
 Gap=     0.271 Goal=   None    Shift=    0.000
 Gap=     0.271 Goal=   None    Shift=    0.000
 RMSDP=2.36D-05 MaxDP=5.95D-04 DE=-2.42D-06 OVMax= 1.68D-03

 Cycle  28  Pass 1  IDiag  1:
 E= -308.590957105698     Delta-E=       -0.000001248514 Rises=F Damp=F
 DIIS: error= 3.00D-05 at cycle  14 NSaved=   9.
 NSaved= 9 IEnMin= 2 EnMin= -308.591360161833     IErMin= 9 ErrMin= 3.00D-05
 ErrMax= 3.00D-05  0.00D+00 EMaxC= 1.00D-01 BMatC= 1.18D-07 BMatP= 2.70D-07
 IDIUse=1 WtCom= 1.00D+00 WtEn= 0.00D+00
 Coeff-Com:  0.811D-02-0.642D-01 0.211D+00-0.145D+00-0.212D-01-0.273D-01
 Coeff-Com: -0.241D+00 0.168D+00 0.111D+01
 Coeff:      0.811D-02-0.642D-01 0.211D+00-0.145D+00-0.212D-01-0.273D-01
 Coeff:     -0.241D+00 0.168D+00 0.111D+01
 Gap=     0.271 Goal=   None    Shift=    0.000
 Gap=     0.271 Goal=   None    Shift=    0.000
 RMSDP=1.35D-05 MaxDP=3.87D-04 DE=-1.25D-06 OVMax= 1.18D-03

 Cycle  29  Pass 1  IDiag  1:
 E= -308.590957519454     Delta-E=       -0.000000413757 Rises=F Damp=F
 DIIS: error= 2.48D-05 at cycle  15 NSaved=  10.
 NSaved=10 IEnMin= 2 EnMin= -308.591360161833     IErMin=10 ErrMin= 2.48D-05
 ErrMax= 2.48D-05  0.00D+00 EMaxC= 1.00D-01 BMatC= 4.96D-08 BMatP= 1.18D-07
 IDIUse=1 WtCom= 1.00D+00 WtEn= 0.00D+00
 Coeff-Com: -0.250D-01-0.538D-04 0.215D+00-0.277D+00-0.303D-01 0.366D+00
 Coeff-Com:  0.161D+00-0.723D+00-0.901D+00 0.221D+01
 Coeff:     -0.250D-01-0.538D-04 0.215D+00-0.277D+00-0.303D-01 0.366D+00
 Coeff:      0.161D+00-0.723D+00-0.901D+00 0.221D+01
 Gap=     0.271 Goal=   None    Shift=    0.000
 Gap=     0.271 Goal=   None    Shift=    0.000
 RMSDP=1.17D-05 MaxDP=2.86D-04 DE=-4.14D-07 OVMax= 8.89D-04

 Cycle  30  Pass 1  IDiag  1:
 E= -308.590957844677     Delta-E=       -0.000000325223 Rises=F Damp=F
 DIIS: error= 1.74D-05 at cycle  16 NSaved=  11.
 NSaved=11 IEnMin= 2 EnMin= -308.591360161833     IErMin=11 ErrMin= 1.74D-05
 ErrMax= 1.74D-05  0.00D+00 EMaxC= 1.00D-01 BMatC= 2.24D-08 BMatP= 4.96D-08
 IDIUse=1 WtCom= 1.00D+00 WtEn= 0.00D+00
 Coeff-Com: -0.139D-01 0.384D-01-0.820D-01 0.444D-01-0.108D-01 0.672D-01
 Coeff-Com:  0.234D+00-0.203D+00-0.939D+00-0.433D-01 0.191D+01
 Coeff:     -0.139D-01 0.384D-01-0.820D-01 0.444D-01-0.108D-01 0.672D-01
 Coeff:      0.234D+00-0.203D+00-0.939D+00-0.433D-01 0.191D+01
 Gap=     0.271 Goal=   None    Shift=    0.000
 Gap=     0.271 Goal=   None    Shift=    0.000
 RMSDP=1.43D-05 MaxDP=3.38D-04 DE=-3.25D-07 OVMax= 1.22D-03

 Cycle  31  Pass 1  IDiag  1:
 E= -308.590958050815     Delta-E=       -0.000000206137 Rises=F Damp=F
 DIIS: error= 5.08D-06 at cycle  17 NSaved=  12.
 NSaved=12 IEnMin= 2 EnMin= -308.591360161833     IErMin=12 ErrMin= 5.08D-06
 ErrMax= 5.08D-06  0.00D+00 EMaxC= 1.00D-01 BMatC= 4.68D-09 BMatP= 2.24D-08
 IDIUse=1 WtCom= 1.00D+00 WtEn= 0.00D+00
 Coeff-Com:  0.493D-03-0.406D-02-0.138D-01 0.366D-01-0.118D-01-0.701D-01
 Coeff-Com:  0.362D-01 0.152D+00-0.131D-01-0.754D+00 0.743D+00 0.899D+00
 Coeff:      0.493D-03-0.406D-02-0.138D-01 0.366D-01-0.118D-01-0.701D-01
 Coeff:      0.362D-01 0.152D+00-0.131D-01-0.754D+00 0.743D+00 0.899D+00
 Gap=     0.271 Goal=   None    Shift=    0.000
 Gap=     0.271 Goal=   None    Shift=    0.000
 RMSDP=4.40D-06 MaxDP=1.19D-04 DE=-2.06D-07 OVMax= 3.79D-04

 Cycle  32  Pass 1  IDiag  1:
 E= -308.590958066128     Delta-E=       -0.000000015314 Rises=F Damp=F
 DIIS: error= 1.44D-06 at cycle  18 NSaved=  13.
 NSaved=13 IEnMin= 2 EnMin= -308.591360161833     IErMin=13 ErrMin= 1.44D-06
 ErrMax= 1.44D-06  0.00D+00 EMaxC= 1.00D-01 BMatC= 5.48D-10 BMatP= 4.68D-09
 IDIUse=1 WtCom= 1.00D+00 WtEn= 0.00D+00
 Coeff-Com:  0.169D-02-0.215D-02-0.305D-02 0.690D-02 0.502D-02-0.136D-01
 Coeff-Com: -0.411D-01 0.260D-01 0.161D+00 0.145D-01-0.312D+00 0.317D-02
 Coeff-Com:  0.115D+01
 Coeff:      0.169D-02-0.215D-02-0.305D-02 0.690D-02 0.502D-02-0.136D-01
 Coeff:     -0.411D-01 0.260D-01 0.161D+00 0.145D-01-0.312D+00 0.317D-02
 Coeff:      0.115D+01
 Gap=     0.271 Goal=   None    Shift=    0.000
 Gap=     0.271 Goal=   None    Shift=    0.000
 RMSDP=6.82D-07 MaxDP=1.56D-05 DE=-1.53D-08 OVMax= 5.81D-05

 Cycle  33  Pass 1  IDiag  1:
 E= -308.590958066950     Delta-E=       -0.000000000822 Rises=F Damp=F
 DIIS: error= 5.39D-07 at cycle  19 NSaved=  14.
 NSaved=14 IEnMin= 2 EnMin= -308.591360161833     IErMin=14 ErrMin= 5.39D-07
 ErrMax= 5.39D-07  0.00D+00 EMaxC= 1.00D-01 BMatC= 6.91D-11 BMatP= 5.48D-10
 IDIUse=1 WtCom= 1.00D+00 WtEn= 0.00D+00
 Coeff-Com: -0.472D-03 0.141D-02 0.182D-02-0.559D-02 0.143D-02 0.110D-01
 Coeff-Com: -0.450D-02-0.224D-01-0.770D-03 0.100D+00-0.927D-01-0.126D+00
 Coeff-Com: -0.282D-01 0.116D+01
 Coeff:     -0.472D-03 0.141D-02 0.182D-02-0.559D-02 0.143D-02 0.110D-01
 Coeff:     -0.450D-02-0.224D-01-0.770D-03 0.100D+00-0.927D-01-0.126D+00
 Coeff:     -0.282D-01 0.116D+01
 Gap=     0.271 Goal=   None    Shift=    0.000
 Gap=     0.271 Goal=   None    Shift=    0.000
 RMSDP=3.03D-07 MaxDP=8.67D-06 DE=-8.22D-10 OVMax= 2.16D-05

 Cycle  34  Pass 1  IDiag  1:
 E= -308.590958067024     Delta-E=       -0.000000000075 Rises=F Damp=F
 DIIS: error= 2.04D-07 at cycle  20 NSaved=  15.
 NSaved=15 IEnMin= 2 EnMin= -308.591360161833     IErMin=15 ErrMin= 2.04D-07
 ErrMax= 2.04D-07  0.00D+00 EMaxC= 1.00D-01 BMatC= 1.67D-11 BMatP= 6.91D-11
 IDIUse=1 WtCom= 1.00D+00 WtEn= 0.00D+00
 Coeff-Com: -0.555D-03-0.709D-03 0.851D-02-0.894D-02-0.201D-02 0.697D-02
 Coeff-Com:  0.603D-02-0.943D-02-0.266D-01 0.210D-01 0.297D-01-0.341D-01
 Coeff-Com: -0.187D+00 0.271D+00 0.926D+00
 Coeff:     -0.555D-03-0.709D-03 0.851D-02-0.894D-02-0.201D-02 0.697D-02
 Coeff:      0.603D-02-0.943D-02-0.266D-01 0.210D-01 0.297D-01-0.341D-01
 Coeff:     -0.187D+00 0.271D+00 0.926D+00
 Gap=     0.271 Goal=   None    Shift=    0.000
 Gap=     0.271 Goal=   None    Shift=    0.000
 RMSDP=4.59D-08 MaxDP=1.28D-06 DE=-7.48D-11 OVMax= 2.39D-06

 Cycle  35  Pass 1  IDiag  1:
 E= -308.590958067038     Delta-E=       -0.000000000014 Rises=F Damp=F
 DIIS: error= 6.93D-08 at cycle  21 NSaved=  16.
 NSaved=16 IEnMin= 2 EnMin= -308.591360161833     IErMin=16 ErrMin= 6.93D-08
 ErrMax= 6.93D-08  0.00D+00 EMaxC= 1.00D-01 BMatC= 2.10D-12 BMatP= 1.67D-11
 IDIUse=1 WtCom= 1.00D+00 WtEn= 0.00D+00
 Coeff-Com: -0.355D-05-0.167D-03 0.784D-03-0.672D-03-0.499D-03 0.192D-03
 Coeff-Com:  0.253D-02 0.281D-03-0.877D-02-0.746D-02 0.212D-01 0.989D-02
 Coeff-Com: -0.383D-01-0.123D+00 0.190D+00 0.954D+00
 Coeff:     -0.355D-05-0.167D-03 0.784D-03-0.672D-03-0.499D-03 0.192D-03
 Coeff:      0.253D-02 0.281D-03-0.877D-02-0.746D-02 0.212D-01 0.989D-02
 Coeff:     -0.383D-01-0.123D+00 0.190D+00 0.954D+00
 Gap=     0.271 Goal=   None    Shift=    0.000
 Gap=     0.271 Goal=   None    Shift=    0.000
 RMSDP=3.27D-08 MaxDP=7.47D-07 DE=-1.38D-11 OVMax= 2.39D-06

 Cycle  36  Pass 1  IDiag  1:
 E= -308.590958067039     Delta-E=       -0.000000000001 Rises=F Damp=F
 DIIS: error= 3.32D-08 at cycle  22 NSaved=  17.
 NSaved=17 IEnMin= 2 EnMin= -308.591360161833     IErMin=17 ErrMin= 3.32D-08
 ErrMax= 3.32D-08  0.00D+00 EMaxC= 1.00D-01 BMatC= 2.16D-13 BMatP= 2.10D-12
 IDIUse=1 WtCom= 1.00D+00 WtEn= 0.00D+00
 Coeff-Com:  0.854D-04 0.100D-03-0.113D-02 0.110D-02 0.209D-03-0.707D-03
 Coeff-Com: -0.139D-03 0.716D-03 0.119D-02-0.275D-02-0.225D-03 0.539D-02
 Coeff-Com:  0.125D-01-0.415D-01-0.829D-01 0.111D+00 0.997D+00
 Coeff:      0.854D-04 0.100D-03-0.113D-02 0.110D-02 0.209D-03-0.707D-03
 Coeff:     -0.139D-03 0.716D-03 0.119D-02-0.275D-02-0.225D-03 0.539D-02
 Coeff:      0.125D-01-0.415D-01-0.829D-01 0.111D+00 0.997D+00
 Gap=     0.271 Goal=   None    Shift=    0.000
 Gap=     0.271 Goal=   None    Shift=    0.000
 RMSDP=8.06D-09 MaxDP=2.52D-07 DE=-1.25D-12 OVMax= 7.77D-07

 SCF Done:  E(UM062X) =  -308.590958067     A.U. after   36 cycles
            NFock= 36  Conv=0.81D-08     -V/T= 2.0096
 <Sx>= 0.0000 <Sy>= 0.0000 <Sz>= 0.0000 <S**2>= 0.0000 S= 0.0000
 <L.S>=  0.00000000000    
 KE= 3.056683566996D+02 PE=-1.240996447150D+03 EE= 3.664915079011D+02
 Annihilation of the first spin contaminant:
 S**2 before annihilation     0.0000,   after    -0.0000
 Leave Link  502 at Sun Apr  3 10:16:32 2022, MaxMem=   104857600 cpu:             130.7 elap:             131.0
 (Enter /apps/software/g16/l601.exe)
 Copying SCF densities to generalized density rwf, IOpCl= 1 IROHF=0.

 **********************************************************************

            Population analysis using the SCF density.

 **********************************************************************

 Alpha  occ. eigenvalues --  -19.70900 -19.68977 -10.61037 -10.54992 -10.53665
 Alpha  occ. eigenvalues --  -10.53015  -1.13720  -1.06254  -0.88305  -0.79081
 Alpha  occ. eigenvalues --   -0.78273  -0.62733  -0.54299  -0.53582  -0.52787
 Alpha  occ. eigenvalues --   -0.50944  -0.47224  -0.46162  -0.43875  -0.43267
 Alpha  occ. eigenvalues --   -0.42109  -0.41791  -0.38528  -0.36860  -0.34797
 Alpha virt. eigenvalues --   -0.07720   0.11755   0.15326   0.16114   0.18934
 Alpha virt. eigenvalues --    0.19892   0.21133   0.21624   0.23822   0.24377
 Alpha virt. eigenvalues --    0.24929   0.27292   0.28009   0.29406   0.29821
 Alpha virt. eigenvalues --    0.54339   0.54609   0.58386   0.61717   0.62491
 Alpha virt. eigenvalues --    0.65312   0.69864   0.73252   0.73732   0.78101
 Alpha virt. eigenvalues --    0.79296   0.86830   0.90388   0.90899   0.93949
 Alpha virt. eigenvalues --    0.94885   0.95974   0.96582   0.97912   0.99134
 Alpha virt. eigenvalues --    0.99787   1.00510   1.01863   1.05107   1.07023
 Alpha virt. eigenvalues --    1.09354   1.12468   1.19951   1.23465   1.29633
 Alpha virt. eigenvalues --    1.41291   1.43525   1.46713   1.48054   1.55701
 Alpha virt. eigenvalues --    1.73262   1.74354   1.77310   1.77850   1.82918
 Alpha virt. eigenvalues --    1.84341   1.86098   1.89825   1.91728   1.96517
 Alpha virt. eigenvalues --    2.00888   2.03698   2.14626   2.15115   2.19223
 Alpha virt. eigenvalues --    2.26849   2.28217   2.28919   2.30963   2.31974
 Alpha virt. eigenvalues --    2.34366   2.41568   2.48832   2.59986   2.62927
 Alpha virt. eigenvalues --    2.69467   2.75443   2.75948   2.94204   3.57669
 Alpha virt. eigenvalues --    3.79897   4.21077   4.33456   4.34197   4.65938
  Beta  occ. eigenvalues --  -19.70900 -19.68977 -10.61037 -10.54992 -10.53665
  Beta  occ. eigenvalues --  -10.53015  -1.13720  -1.06254  -0.88305  -0.79081
  Beta  occ. eigenvalues --   -0.78273  -0.62733  -0.54299  -0.53582  -0.52787
  Beta  occ. eigenvalues --   -0.50944  -0.47224  -0.46162  -0.43875  -0.43267
  Beta  occ. eigenvalues --   -0.42109  -0.41791  -0.38528  -0.36860  -0.34797
  Beta virt. eigenvalues --   -0.07720   0.11755   0.15326   0.16114   0.18934
  Beta virt. eigenvalues --    0.19892   0.21133   0.21624   0.23822   0.24377
  Beta virt. eigenvalues --    0.24929   0.27292   0.28009   0.29406   0.29821
  Beta virt. eigenvalues --    0.54339   0.54609   0.58386   0.61717   0.62491
  Beta virt. eigenvalues --    0.65312   0.69864   0.73252   0.73732   0.78101
  Beta virt. eigenvalues --    0.79296   0.86830   0.90388   0.90899   0.93949
  Beta virt. eigenvalues --    0.94885   0.95974   0.96582   0.97912   0.99134
  Beta virt. eigenvalues --    0.99787   1.00510   1.01863   1.05107   1.07023
  Beta virt. eigenvalues --    1.09354   1.12468   1.19951   1.23465   1.29633
  Beta virt. eigenvalues --    1.41291   1.43525   1.46713   1.48054   1.55701
  Beta virt. eigenvalues --    1.73262   1.74354   1.77310   1.77850   1.82918
  Beta virt. eigenvalues --    1.84341   1.86098   1.89825   1.91728   1.96517
  Beta virt. eigenvalues --    2.00888   2.03698   2.14626   2.15115   2.19223
  Beta virt. eigenvalues --    2.26849   2.28217   2.28919   2.30963   2.31974
  Beta virt. eigenvalues --    2.34366   2.41568   2.48832   2.59986   2.62927
  Beta virt. eigenvalues --    2.69467   2.75443   2.75948   2.94204   3.57669
  Beta virt. eigenvalues --    3.79897   4.21077   4.33456   4.34197   4.65938
          Condensed to atoms (all electrons):
               1          2          3          4          5          6
     1  C    5.206132   0.371855   0.371732   0.378572   0.358379  -0.084753
     2  C    0.371855   4.715920  -0.026952  -0.024208  -0.027093   0.364649
     3  H    0.371732  -0.026952   0.530810  -0.022811  -0.025864   0.005702
     4  H    0.378572  -0.024208  -0.022811   0.497782  -0.026243  -0.004625
     5  H    0.358379  -0.027093  -0.025864  -0.026243   0.571107  -0.000714
     6  C   -0.084753   0.364649   0.005702  -0.004625  -0.000714   5.221835
     7  C   -0.067015   0.369212  -0.005314   0.004573  -0.002880  -0.062956
     8  H    0.005834  -0.027185  -0.000174  -0.000016  -0.000101   0.369073
     9  H   -0.000508  -0.026344  -0.000111   0.000118   0.000932   0.359063
    10  H   -0.005132  -0.027555  -0.000001   0.003046   0.000125   0.374790
    11  H   -0.002521  -0.026837  -0.000027   0.000040   0.001636  -0.003026
    12  H    0.006015  -0.026675  -0.000066  -0.000151  -0.000106  -0.006963
    13  H   -0.006626  -0.026804   0.004124  -0.000047   0.000214   0.006042
    14  O   -0.056328   0.168075   0.000920  -0.004238   0.003371  -0.054272
    15  O   -0.006588  -0.010197  -0.000216   0.006600   0.000150  -0.004428
    16  H    0.000325  -0.001018   0.000003  -0.000247  -0.000015   0.001379
               7          8          9         10         11         12
     1  C   -0.067015   0.005834  -0.000508  -0.005132  -0.002521   0.006015
     2  C    0.369212  -0.027185  -0.026344  -0.027555  -0.026837  -0.026675
     3  H   -0.005314  -0.000174  -0.000111  -0.000001  -0.000027  -0.000066
     4  H    0.004573  -0.000016   0.000118   0.003046   0.000040  -0.000151
     5  H   -0.002880  -0.000101   0.000932   0.000125   0.001636  -0.000106
     6  C   -0.062956   0.369073   0.359063   0.374790  -0.003026  -0.006963
     7  C    5.187167  -0.005512  -0.002329   0.005025   0.371390   0.371289
     8  H   -0.005512   0.542319  -0.025272  -0.025497   0.000022   0.004161
     9  H   -0.002329  -0.025272   0.559596  -0.025074   0.001381   0.000232
    10  H    0.005025  -0.025497  -0.025074   0.519823   0.000009  -0.000054
    11  H    0.371390   0.000022   0.001381   0.000009   0.526373  -0.024453
    12  H    0.371289   0.004161   0.000232  -0.000054  -0.024453   0.524216
    13  H    0.372647  -0.000088  -0.000097  -0.000154  -0.023969  -0.025717
    14  O   -0.048971   0.001269   0.003284  -0.003546   0.003072   0.000007
    15  O    0.001892  -0.000399   0.000232   0.009205  -0.000030  -0.000033
    16  H   -0.000085   0.000162  -0.000022  -0.000245   0.000001   0.000002
              13         14         15         16
     1  C   -0.006626  -0.056328  -0.006588   0.000325
     2  C   -0.026804   0.168075  -0.010197  -0.001018
     3  H    0.004124   0.000920  -0.000216   0.000003
     4  H   -0.000047  -0.004238   0.006600  -0.000247
     5  H    0.000214   0.003371   0.000150  -0.000015
     6  C    0.006042  -0.054272  -0.004428   0.001379
     7  C    0.372647  -0.048971   0.001892  -0.000085
     8  H   -0.000088   0.001269  -0.000399   0.000162
     9  H   -0.000097   0.003284   0.000232  -0.000022
    10  H   -0.000154  -0.003546   0.009205  -0.000245
    11  H   -0.023969   0.003072  -0.000030   0.000001
    12  H   -0.025717   0.000007  -0.000033   0.000002
    13  H    0.516723  -0.000183  -0.000029   0.000001
    14  O   -0.000183   8.167634   0.126465  -0.002236
    15  O   -0.000029   0.126465   8.150895   0.209176
    16  H    0.000001  -0.002236   0.209176   0.366621
          Atomic-Atomic Spin Densities.
               1          2          3          4          5          6
     1  C   -0.000000   0.000000   0.000000  -0.000000   0.000000   0.000000
     2  C    0.000000  -0.000000   0.000000   0.000000   0.000000   0.000000
     3  H    0.000000   0.000000   0.000000  -0.000000  -0.000000   0.000000
     4  H   -0.000000   0.000000  -0.000000   0.000000   0.000000  -0.000000
     5  H    0.000000   0.000000  -0.000000   0.000000   0.000000  -0.000000
     6  C    0.000000   0.000000   0.000000  -0.000000  -0.000000   0.000000
     7  C   -0.000000   0.000000  -0.000000   0.000000   0.000000  -0.000000
     8  H   -0.000000   0.000000   0.000000  -0.000000   0.000000   0.000000
     9  H   -0.000000   0.000000  -0.000000   0.000000  -0.000000   0.000000
    10  H   -0.000000   0.000000  -0.000000  -0.000000   0.000000  -0.000000
    11  H    0.000000   0.000000   0.000000  -0.000000  -0.000000   0.000000
    12  H   -0.000000   0.000000   0.000000  -0.000000   0.000000   0.000000
    13  H    0.000000  -0.000000   0.000000  -0.000000  -0.000000   0.000000
    14  O   -0.000000  -0.000000  -0.000000   0.000000   0.000000  -0.000000
    15  O    0.000000  -0.000000   0.000000  -0.000000  -0.000000   0.000000
    16  H    0.000000   0.000000  -0.000000  -0.000000   0.000000  -0.000000
               7          8          9         10         11         12
     1  C   -0.000000  -0.000000  -0.000000  -0.000000   0.000000  -0.000000
     2  C    0.000000   0.000000   0.000000   0.000000   0.000000   0.000000
     3  H   -0.000000   0.000000  -0.000000  -0.000000   0.000000   0.000000
     4  H    0.000000  -0.000000   0.000000  -0.000000  -0.000000  -0.000000
     5  H    0.000000   0.000000  -0.000000   0.000000  -0.000000   0.000000
     6  C   -0.000000   0.000000   0.000000  -0.000000   0.000000   0.000000
     7  C    0.000000  -0.000000   0.000000  -0.000000  -0.000000  -0.000000
     8  H   -0.000000  -0.000000   0.000000  -0.000000   0.000000  -0.000000
     9  H    0.000000   0.000000  -0.000000   0.000000  -0.000000  -0.000000
    10  H   -0.000000  -0.000000   0.000000  -0.000000  -0.000000   0.000000
    11  H   -0.000000   0.000000  -0.000000  -0.000000   0.000000   0.000000
    12  H   -0.000000  -0.000000  -0.000000   0.000000   0.000000   0.000000
    13  H   -0.000000   0.000000   0.000000  -0.000000   0.000000  -0.000000
    14  O   -0.000000  -0.000000  -0.000000   0.000000   0.000000   0.000000
    15  O    0.000000   0.000000  -0.000000  -0.000000  -0.000000   0.000000
    16  H   -0.000000   0.000000   0.000000  -0.000000   0.000000   0.000000
              13         14         15         16
     1  C    0.000000  -0.000000   0.000000   0.000000
     2  C   -0.000000  -0.000000  -0.000000   0.000000
     3  H    0.000000  -0.000000   0.000000  -0.000000
     4  H   -0.000000   0.000000  -0.000000  -0.000000
     5  H   -0.000000   0.000000  -0.000000   0.000000
     6  C    0.000000  -0.000000   0.000000  -0.000000
     7  C   -0.000000  -0.000000   0.000000  -0.000000
     8  H    0.000000  -0.000000   0.000000   0.000000
     9  H    0.000000  -0.000000  -0.000000   0.000000
    10  H   -0.000000   0.000000  -0.000000  -0.000000
    11  H    0.000000   0.000000  -0.000000   0.000000
    12  H   -0.000000   0.000000   0.000000   0.000000
    13  H    0.000000   0.000000   0.000000  -0.000000
    14  O    0.000000   0.000000   0.000000  -0.000000
    15  O    0.000000   0.000000  -0.000000   0.000000
    16  H   -0.000000  -0.000000   0.000000  -0.000000
 Mulliken charges and spin densities:
               1          2
     1  C   -0.469372  -0.000000
     2  C    0.261157  -0.000000
     3  H    0.168245   0.000000
     4  H    0.191857   0.000000
     5  H    0.147105   0.000000
     6  C   -0.480795   0.000000
     7  C   -0.488131   0.000000
     8  H    0.161404  -0.000000
     9  H    0.154918  -0.000000
    10  H    0.175235  -0.000000
    11  H    0.176939   0.000000
    12  H    0.178297   0.000000
    13  H    0.183962   0.000000
    14  O   -0.304321   0.000000
    15  O   -0.482697  -0.000000
    16  H    0.426198  -0.000000
 Sum of Mulliken charges =  -0.00000  -0.00000
 Mulliken charges and spin densities with hydrogens summed into heavy atoms:
               1          2
     1  C    0.037834   0.000000
     2  C    0.261157  -0.000000
     6  C    0.010762   0.000000
     7  C    0.051067   0.000000
    14  O   -0.304321   0.000000
    15  O   -0.056499  -0.000000
 Electronic spatial extent (au):  <R**2>=           1478.2569
 Charge=             -0.0000 electrons
 Dipole moment (field-independent basis, Debye):
    X=              0.9829    Y=             -1.4269    Z=              1.4091  Tot=              2.2333
 Quadrupole moment (field-independent basis, Debye-Ang):
   XX=            -41.7063   YY=            -37.4321   ZZ=            -35.3794
   XY=              1.9335   XZ=             -5.9775   YZ=              3.0505
 Traceless Quadrupole moment (field-independent basis, Debye-Ang):
   XX=             -3.5337   YY=              0.7405   ZZ=              2.7932
   XY=              1.9335   XZ=             -5.9775   YZ=              3.0505
 Octapole moment (field-independent basis, Debye-Ang**2):
  XXX=            253.8075  YYY=             48.0298  ZZZ=            -11.3119  XYY=             79.0077
  XXY=             13.6786  XXZ=             17.1960  XZZ=             84.8821  YZZ=              6.5139
  YYZ=             -1.6836  XYZ=             -3.6003
 Hexadecapole moment (field-independent basis, Debye-Ang**3):
 XXXX=          -1276.6044 YYYY=           -244.0756 ZZZZ=           -353.1624 XXXY=            -97.4874
 XXXZ=            -54.4564 YYYX=            -98.4047 YYYZ=             -7.8951 ZZZX=            -18.7836
 ZZZY=              9.9750 XXYY=           -242.9621 XXZZ=           -301.2279 YYZZ=            -99.9984
 XXYZ=              0.1157 YYXZ=             -3.6648 ZZXY=            -18.6946
 N-N= 2.602456244823D+02 E-N=-1.240996448016D+03  KE= 3.056683566996D+02
                          Isotropic Fermi Contact Couplings
        Atom                 a.u.       MegaHertz       Gauss      10(-4) cm-1
     1  C(13)             -0.00000      -0.00000      -0.00000      -0.00000
     2  C(13)             -0.00000      -0.00001      -0.00001      -0.00000
     3  H(1)               0.00000       0.00000       0.00000       0.00000
     4  H(1)               0.00000       0.00001       0.00000       0.00000
     5  H(1)               0.00000       0.00000       0.00000       0.00000
     6  C(13)              0.00000       0.00001       0.00000       0.00000
     7  C(13)              0.00000       0.00001       0.00000       0.00000
     8  H(1)              -0.00000      -0.00000      -0.00000      -0.00000
     9  H(1)              -0.00000      -0.00001      -0.00000      -0.00000
    10  H(1)              -0.00000      -0.00000      -0.00000      -0.00000
    11  H(1)               0.00000       0.00000       0.00000       0.00000
    12  H(1)              -0.00000      -0.00000      -0.00000      -0.00000
    13  H(1)               0.00000       0.00000       0.00000       0.00000
    14  O(17)             -0.00000       0.00008       0.00003       0.00003
    15  O(17)             -0.00000       0.00006       0.00002       0.00002
    16  H(1)               0.00000       0.00000       0.00000       0.00000
 --------------------------------------------------------
       Center         ----  Spin Dipole Couplings  ----
                      3XX-RR        3YY-RR        3ZZ-RR
 --------------------------------------------------------
     1   Atom        0.000000     -0.000000     -0.000000
     2   Atom        0.000000      0.000000     -0.000000
     3   Atom        0.000000     -0.000000     -0.000000
     4   Atom        0.000000      0.000000     -0.000000
     5   Atom        0.000000      0.000000     -0.000000
     6   Atom       -0.000000      0.000000     -0.000000
     7   Atom       -0.000000     -0.000000      0.000000
     8   Atom        0.000000      0.000000     -0.000000
     9   Atom       -0.000000      0.000000      0.000000
    10   Atom       -0.000000      0.000000     -0.000000
    11   Atom       -0.000000     -0.000000      0.000000
    12   Atom        0.000000     -0.000000      0.000000
    13   Atom       -0.000000     -0.000000      0.000000
    14   Atom       -0.000001      0.000002     -0.000001
    15   Atom        0.000000     -0.000000     -0.000000
    16   Atom       -0.000000      0.000000      0.000000
 --------------------------------------------------------
                        XY            XZ            YZ
 --------------------------------------------------------
     1   Atom        0.000000     -0.000000     -0.000000
     2   Atom        0.000000      0.000000      0.000000
     3   Atom        0.000000     -0.000000     -0.000000
     4   Atom        0.000000      0.000000      0.000000
     5   Atom        0.000000      0.000000      0.000000
     6   Atom       -0.000000     -0.000000     -0.000000
     7   Atom        0.000000      0.000000      0.000000
     8   Atom       -0.000000     -0.000000     -0.000000
     9   Atom        0.000000     -0.000000     -0.000000
    10   Atom        0.000000      0.000000      0.000000
    11   Atom        0.000000     -0.000000     -0.000000
    12   Atom       -0.000000      0.000000     -0.000000
    13   Atom       -0.000000     -0.000000      0.000000
    14   Atom        0.000001     -0.000000      0.000002
    15   Atom       -0.000001     -0.000000     -0.000001
    16   Atom        0.000000      0.000000     -0.000000
 --------------------------------------------------------


 ---------------------------------------------------------------------------------
              Anisotropic Spin Dipole Couplings in Principal Axis System
 ---------------------------------------------------------------------------------

       Atom             a.u.   MegaHertz   Gauss  10(-4) cm-1        Axes

              Baa    -0.0000    -0.000    -0.000    -0.000  0.0884  0.3001  0.9498
     1 C(13)  Bbb    -0.0000    -0.000    -0.000    -0.000 -0.1073  0.9509 -0.2904
              Bcc     0.0000     0.000     0.000     0.000  0.9903  0.0763 -0.1162
 
              Baa    -0.0000    -0.000    -0.000    -0.000 -0.0578 -0.2034  0.9774
     2 C(13)  Bbb     0.0000     0.000     0.000     0.000  0.9464 -0.3228 -0.0112
              Bcc     0.0000     0.000     0.000     0.000  0.3177  0.9244  0.2111
 
              Baa    -0.0000    -0.000    -0.000    -0.000  0.0956  0.3120  0.9453
     3 H(1)   Bbb    -0.0000    -0.000    -0.000    -0.000 -0.2281  0.9312 -0.2843
              Bcc     0.0000     0.000     0.000     0.000  0.9689  0.1885 -0.1602
 
              Baa    -0.0000    -0.000    -0.000    -0.000 -0.2434 -0.0378  0.9692
     4 H(1)   Bbb     0.0000     0.000     0.000     0.000 -0.3708  0.9270 -0.0569
              Bcc     0.0000     0.000     0.000     0.000  0.8963  0.3732  0.2397
 
              Baa    -0.0000    -0.000    -0.000    -0.000 -0.0130 -0.1132  0.9935
     5 H(1)   Bbb    -0.0000    -0.000    -0.000    -0.000 -0.2724  0.9564  0.1054
              Bcc     0.0000     0.000     0.000     0.000  0.9621  0.2692  0.0433
 
              Baa    -0.0000    -0.000    -0.000    -0.000  0.8238  0.2178  0.5234
     6 C(13)  Bbb    -0.0000    -0.000    -0.000    -0.000 -0.5583  0.1512  0.8158
              Bcc     0.0000     0.000     0.000     0.000 -0.0985  0.9642 -0.2462
 
              Baa    -0.0000    -0.000    -0.000    -0.000  0.7856  0.3069 -0.5373
     7 C(13)  Bbb    -0.0000    -0.000    -0.000    -0.000 -0.4415  0.8864 -0.1392
              Bcc     0.0000     0.000     0.000     0.000  0.4335  0.3465  0.8318
 
              Baa    -0.0000    -0.000    -0.000    -0.000  0.1773  0.2595  0.9493
     8 H(1)   Bbb     0.0000     0.000     0.000     0.000  0.5425  0.7791 -0.3143
              Bcc     0.0000     0.000     0.000     0.000  0.8212 -0.5707  0.0027
 
              Baa    -0.0000    -0.000    -0.000    -0.000  0.9330  0.0818  0.3505
     9 H(1)   Bbb    -0.0000    -0.000    -0.000    -0.000 -0.2586  0.8297  0.4947
              Bcc     0.0000     0.000     0.000     0.000 -0.2504 -0.5522  0.7952
 
              Baa    -0.0000    -0.000    -0.000    -0.000  0.1229 -0.5583  0.8205
    10 H(1)   Bbb    -0.0000    -0.000    -0.000    -0.000  0.9334 -0.2158 -0.2867
              Bcc     0.0000     0.000     0.000     0.000  0.3371  0.8011  0.4946
 
              Baa    -0.0000    -0.000    -0.000    -0.000 -0.3967  0.8995  0.1830
    11 H(1)   Bbb    -0.0000    -0.000    -0.000    -0.000  0.9161  0.3750  0.1421
              Bcc     0.0000     0.000     0.000     0.000 -0.0592 -0.2240  0.9728
 
              Baa    -0.0000    -0.000    -0.000    -0.000  0.0093  0.9904  0.1377
    12 H(1)   Bbb    -0.0000    -0.000    -0.000    -0.000  0.8194  0.0713 -0.5687
              Bcc     0.0000     0.000     0.000     0.000  0.5731 -0.1181  0.8109
 
              Baa    -0.0000    -0.000    -0.000    -0.000  0.9835 -0.0025  0.1811
    13 H(1)   Bbb    -0.0000    -0.000    -0.000    -0.000  0.0908  0.8721 -0.4808
              Bcc     0.0000     0.000     0.000     0.000 -0.1568  0.4893  0.8579
 
              Baa    -0.0000     0.000     0.000     0.000  0.4193 -0.4219  0.8039
    14 O(17)  Bbb    -0.0000     0.000     0.000     0.000  0.8813 -0.0233 -0.4719
              Bcc     0.0000    -0.000    -0.000    -0.000  0.2178  0.9064  0.3621
 
              Baa    -0.0000     0.000     0.000     0.000  0.3058  0.6697  0.6767
    15 O(17)  Bbb     0.0000    -0.000    -0.000    -0.000  0.8566  0.1167 -0.5026
              Bcc     0.0000    -0.000    -0.000    -0.000 -0.4156  0.7334 -0.5380
 
              Baa    -0.0000    -0.000    -0.000    -0.000  0.9261 -0.2932 -0.2373
    16 H(1)   Bbb     0.0000     0.000     0.000     0.000  0.3771  0.7370  0.5609
              Bcc     0.0000     0.000     0.000     0.000  0.0104 -0.6090  0.7931
 

 ---------------------------------------------------------------------------------

 No NMR shielding tensors so no spin-rotation constants.
 Leave Link  601 at Sun Apr  3 10:16:33 2022, MaxMem=   104857600 cpu:               0.1 elap:               0.1
 (Enter /apps/software/g16/l801.exe)
 DoSCS=F DFT=T ScalE2(SS,OS)=  1.000000  1.000000
 Range of M.O.s used for correlation:     1   110
 NBasis=   110 NAE=    25 NBE=    25 NFC=     0 NFV=     0
 NROrb=    110 NOA=    25 NOB=    25 NVA=    85 NVB=    85
 Leave Link  801 at Sun Apr  3 10:16:33 2022, MaxMem=   104857600 cpu:               0.0 elap:               0.0
 (Enter /apps/software/g16/l914.exe)
 UHF ground state
 Doing stability rather than CIS.
 Keep R1 and R2 ints in memory in canonical form, NReq=39390742.
 FoFCou: FMM=F IPFlag=           0 FMFlag=           0 FMFlg1=           0
         NFxFlg=           0 DoJE=F BraDBF=F KetDBF=F FulRan=T
         wScrn=  0.000000 ICntrl=       600 IOpCl=  0 I1Cent=           0 NGrid=           0
         NMat0=    1 NMatS0=   6105 NMatT0=    0 NMatD0=    1 NMtDS0=    0 NMtDT0=    0
 Symmetry not used in FoFCou.
 Two-electron integral symmetry not used.
 MDV=   104857600 DFT=T DoStab=T Mixed=T DoRPA=F DoScal=F NonHer=F
 Making orbital integer symmetry assigments:
    12 initial guesses have been made.
 Convergence on wavefunction:    0.001000000000000
 Davidson Disk Diagonalization:  ConvIn= 1.00D-03 SkipCon=T Conv= 1.00D-03.
 Max sub-space:  2000 roots to seek:    12 dimension of matrix:         4250
 Iteration     1 Dimension    12 NMult     0 NNew     12
 CISAX will form    12 AO SS matrices at one time.
 NMat=    12 NSing=    12 JSym2X= 0.
 New state      1 was old state      4
 Excitation Energies [eV] at current iteration:
 Root      1 :     0.796917131171529
 Root      2 :     1.392763340179733
 Root      3 :     2.063869807532933
 Root      4 :     2.979817602501419
 Root      5 :     3.485152143561052
 Root      6 :     5.756237987871873
 Root      7 :     6.082842055473097
 Root      8 :     6.237641684721642
 Root      9 :     6.720956600264450
 Root     10 :     6.896447454371597
 Root     11 :     6.986388256691563
 Root     12 :    15.541362661086126
 Iteration     2 Dimension    24 NMult    12 NNew     12
 CISAX will form    12 AO SS matrices at one time.
 NMat=    12 NSing=    12 JSym2X= 0.
 Root      1 not converged, maximum delta is    0.179285081231829
 Excitation Energies [eV] at current iteration:
 Root      1 :    -0.598036417952507   Change is   -1.394953549124036
 Root      2 :     0.899043682799976   Change is   -0.493719657379757
 Root      3 :     1.497280235807529   Change is   -0.566589571725404
 Root      4 :     2.666398819316704   Change is   -0.313418783184715
 Root      5 :     3.226729489822629   Change is   -0.258422653738423
 Root      6 :     5.070773479326236   Change is   -0.685464508545636
 Root      7 :     5.845719224680333   Change is   -0.237122830792763
 Root      8 :     6.081380223301259   Change is   -0.156261461420384
 Root      9 :     6.258759716288125   Change is   -0.462196883976325
 Root     10 :     6.724330219257444   Change is   -0.172117235114152
 Root     11 :     6.860383273730871
 Root     12 :     6.928480410978024   Change is   -0.057907845713539
 Iteration     3 Dimension    27 NMult    24 NNew      3
 CISAX will form     3 AO SS matrices at one time.
 NMat=     3 NSing=     3 JSym2X= 0.
 Root      1 not converged, maximum delta is    0.018376617405168
 Excitation Energies [eV] at current iteration:
 Root      1 :    -0.650914265061451   Change is   -0.052877847108943
 Root      2 :     0.895719020852416   Change is   -0.003324661947560
 Root      3 :     1.493402601878870   Change is   -0.003877633928659
 Iteration     4 Dimension    30 NMult    27 NNew      3
 CISAX will form     3 AO SS matrices at one time.
 NMat=     3 NSing=     3 JSym2X= 0.
 Root      1 not converged, maximum delta is    0.001654395524966
 Excitation Energies [eV] at current iteration:
 Root      1 :    -0.651981300119848   Change is   -0.001067035058397
 Root      2 :     0.895656423424283   Change is   -0.000062597428132
 Root      3 :     1.493310254500669   Change is   -0.000092347378201
 Cease iterating as an instability has been found.
 ***********************************************************************
 Stability analysis using <AA,BB:AA,BB> singles matrix:
 ***********************************************************************
 1PDM for each excited state written to RWF  633
 Ground to excited state transition densities written to RWF  633

 Eigenvectors of the stability matrix:
 
 Excited state symmetry could not be determined.
 Eigenvector   1:  3.000-?Sym  Eigenvalue=-0.0239599  <S**2>=2.000
     13A -> 26A       -0.13852
     17A -> 26A        0.14186
     19A -> 26A       -0.19627
     21A -> 26A       -0.24203
     23A -> 26A       -0.20884
     24A -> 26A        0.53061
     25A -> 26A       -0.12343
     13B -> 26B        0.13852
     17B -> 26B       -0.14186
     19B -> 26B        0.19627
     21B -> 26B        0.24203
     23B -> 26B        0.20884
     24B -> 26B       -0.53061
     25B -> 26B        0.12343
 
 Excited state symmetry could not be determined.
 Eigenvector   2:  3.000-?Sym  Eigenvalue= 0.0329148  <S**2>=2.000
     18A -> 26A        0.10473
     22A -> 26A        0.15358
     23A -> 26A        0.21588
     24A -> 26A        0.19717
     25A -> 26A        0.59596
     18B -> 26B       -0.10473
     22B -> 26B       -0.15358
     23B -> 26B       -0.21588
     24B -> 26B       -0.19717
     25B -> 26B       -0.59596
 
 Excited state symmetry could not be determined.
 Eigenvector   3:  3.000-?Sym  Eigenvalue= 0.0548781  <S**2>=2.000
     22A -> 26A        0.15249
     23A -> 26A       -0.59544
     24A -> 26A       -0.21914
     25A -> 26A        0.20996
     22B -> 26B       -0.15249
     23B -> 26B        0.59544
     24B -> 26B        0.21914
     25B -> 26B       -0.20996
 The wavefunction has an internal instability.
 Leave Link  914 at Sun Apr  3 10:19:09 2022, MaxMem=   104857600 cpu:             155.6 elap:             155.9
 (Enter /apps/software/g16/l508.exe)
 Keep R1 and R2 ints in memory in canonical form, NReq=38213339.
 FoFCou: FMM=F IPFlag=           0 FMFlag=           0 FMFlg1=           0
         NFxFlg=           0 DoJE=F BraDBF=F KetDBF=F FulRan=T
         wScrn=  0.000000 ICntrl=       600 IOpCl=  0 I1Cent=           0 NGrid=           0
         NMat0=    1 NMatS0=   6105 NMatT0=    0 NMatD0=    1 NMtDS0=    0 NMtDT0=    0
 Symmetry not used in FoFCou.
 Two-electron integral symmetry not used.
 Tight linear equation convergence will be used.
 UM062X wavefunction.
 Quadratic Convergence SCF Method.
 Line search only if initial step raises energy.
 Perform preliminary linear searches along instability eigenvector.
     ILin= 1 X=0.000D+00 Y=-3.085909580670D+02 DE= 0.00D+00
     ILin= 2 X=1.000D-01 Y=-3.085911920500D+02 DE=-2.34D-04
     ILin= 3 X=1.414D-01 Y=-3.085914147789D+02 DE=-4.57D-04
     ILin= 4 X=2.000D-01 Y=-3.085918259848D+02 DE=-8.68D-04
     ILin= 5 X=2.828D-01 Y=-3.085925081392D+02 DE=-1.55D-03
     ILin= 6 X=4.000D-01 Y=-3.085932887712D+02 DE=-2.33D-03
     ILin= 7 X=5.657D-01 Y=-3.085923902393D+02 DE=-1.43D-03
     An  expanding polynomial of degree  7 produced  0.4441
 Iteration F X= 4.441D-01 EE=-3.085933776073754D+02
     ILin= 1 X=0.000D+00 Y=-3.085909580670D+02 DE= 0.00D+00
     ILin= 2 X=1.000D-01 Y=-3.085911920419D+02 DE=-2.34D-04
     ILin= 3 X=1.414D-01 Y=-3.085914147603D+02 DE=-4.57D-04
 The two search directions are symmetric.
 Iteration B X= 4.441D-01 EE=-3.085933776073754D+02
 Take forward step, X= 4.441D-01 Step= 4.441D-01
 Iteration   1 EE= -308.593377250877                                    Grad=2.790D-02 Max rot=    0.3726 deg.
 Gradient too large for Newton-Raphson -- use scaled steepest descent instead.
 Alpha Gap=     0.297 HL deriv= 2.90D-03
  Beta Gap=     0.284 HL deriv= 2.75D-03
     ILin= 1 X=0.000D+00 Y=-3.085933772509D+02 DE= 0.00D+00 F= -1.10D-03
     ILin= 2 X=3.000D-01 Y=-3.085936531669D+02 DE=-2.76D-04 F= -7.44D-04
     ILin= 3 X=6.000D-01 Y=-3.085938234258D+02 DE=-4.46D-04 F= -3.92D-04
     ILin= 4 X=1.200D+00 Y=-3.085938475967D+02 DE=-4.70D-04 F=  3.11D-04
     Accept linear search using points  3 and  4.
     An  expanding polynomial of degree  4 produced  0.9138
 Iteration   2 EE= -308.593888624609     Delta-E=       -0.000511373733 Grad=1.388D-02 Max rot=    0.1753 deg.
 Gradient too large for Newton-Raphson -- use scaled steepest descent instead.
 Alpha Gap=     0.300 HL deriv= 2.54D-04
  Beta Gap=     0.282 HL deriv= 1.82D-03
     ILin= 1 X=0.000D+00 Y=-3.085938886246D+02 DE= 0.00D+00 F= -4.20D-04
     ILin= 2 X=5.000D-01 Y=-3.085939916248D+02 DE=-1.03D-04 F=  7.70D-06
     Accept linear search using points  1 and  2.
     An  expanding polynomial of degree  2 produced  0.3820
 Iteration   3 EE= -308.593986590034     Delta-E=       -0.000097965425 Grad=5.653D-03 Max rot=    0.0712 deg.
 QCNR:  CnvC1=6.52D-09 CnvC2=6.52D-08
 LinEq1:  Iter=  0 NonCon=     1 RMS=1.48D-04 Max=3.88D-03 NDo=     1
 AX will form     1 AO Fock derivatives at one time.
 LinEq1:  Iter=  1 NonCon=     1 RMS=6.11D-05 Max=1.69D-03 NDo=     1
 LinEq1:  Iter=  2 NonCon=     1 RMS=6.21D-05 Max=2.06D-03 NDo=     1
 LinEq1:  Iter=  3 NonCon=     1 RMS=3.21D-05 Max=4.76D-04 NDo=     1
 LinEq1:  Iter=  4 NonCon=     1 RMS=1.65D-05 Max=3.32D-04 NDo=     1
 LinEq1:  Iter=  5 NonCon=     1 RMS=7.51D-06 Max=1.03D-04 NDo=     1
 LinEq1:  Iter=  6 NonCon=     1 RMS=3.71D-06 Max=6.09D-05 NDo=     1
 LinEq1:  Iter=  7 NonCon=     1 RMS=1.56D-06 Max=3.08D-05 NDo=     1
 LinEq1:  Iter=  8 NonCon=     1 RMS=7.27D-07 Max=1.97D-05 NDo=     1
 LinEq1:  Iter=  9 NonCon=     1 RMS=3.34D-07 Max=5.88D-06 NDo=     1
 LinEq1:  Iter= 10 NonCon=     1 RMS=1.37D-07 Max=3.32D-06 NDo=     1
 LinEq1:  Iter= 11 NonCon=     1 RMS=4.50D-08 Max=9.50D-07 NDo=     1
 LinEq1:  Iter= 12 NonCon=     1 RMS=1.75D-08 Max=3.48D-07 NDo=     1
 LinEq1:  Iter= 13 NonCon=     1 RMS=7.82D-09 Max=1.13D-07 NDo=     1
 LinEq1:  Iter= 14 NonCon=     0 RMS=2.87D-09 Max=3.79D-08 NDo=     1
 Linear equations converged to 6.519D-09 6.519D-08 after    14 iterations.
 Angle between quadratic step and gradient=  55.27 degrees.
     ILin= 1 X=0.000D+00 Y=-3.085939865900D+02 DE= 0.00D+00 F= -5.67D-04
     ILin= 2 X=1.000D+00 Y=-3.085942184847D+02 DE=-2.32D-04 F=  1.62D-04
     Accept linear search using points  1 and  2.
     An  expanding polynomial of degree  2 produced  0.8152
 Iteration   4 EE= -308.594233148196     Delta-E=       -0.000246558163 Grad=1.564D-03 Max rot=    0.0165 deg.
 QCNR:  CnvC1=6.52D-09 CnvC2=6.52D-08
 LinEq1:  Iter=  0 NonCon=     1 RMS=2.83D-05 Max=7.27D-04 NDo=     1
 LinEq1:  Iter=  1 NonCon=     1 RMS=7.14D-06 Max=1.56D-04 NDo=     1
 LinEq1:  Iter=  2 NonCon=     1 RMS=8.36D-06 Max=3.04D-04 NDo=     1
 LinEq1:  Iter=  3 NonCon=     1 RMS=3.19D-06 Max=7.58D-05 NDo=     1
 LinEq1:  Iter=  4 NonCon=     1 RMS=1.83D-06 Max=2.60D-05 NDo=     1
 LinEq1:  Iter=  5 NonCon=     1 RMS=6.38D-07 Max=1.41D-05 NDo=     1
 LinEq1:  Iter=  6 NonCon=     1 RMS=3.58D-07 Max=5.27D-06 NDo=     1
 LinEq1:  Iter=  7 NonCon=     1 RMS=1.75D-07 Max=4.09D-06 NDo=     1
 LinEq1:  Iter=  8 NonCon=     1 RMS=8.30D-08 Max=2.46D-06 NDo=     1
 LinEq1:  Iter=  9 NonCon=     1 RMS=3.84D-08 Max=6.10D-07 NDo=     1
 LinEq1:  Iter= 10 NonCon=     1 RMS=1.93D-08 Max=3.08D-07 NDo=     1
 LinEq1:  Iter= 11 NonCon=     1 RMS=6.44D-09 Max=1.71D-07 NDo=     1
 LinEq1:  Iter= 12 NonCon=     0 RMS=2.47D-09 Max=3.91D-08 NDo=     1
 Linear equations converged to 6.519D-09 6.519D-08 after    12 iterations.
 Angle between quadratic step and gradient=  61.24 degrees.
     ILin= 1 X=0.000D+00 Y=-3.085942331482D+02 DE= 0.00D+00 F= -7.29D-06
     ILin= 2 X=1.000D+00 Y=-3.085942367944D+02 DE=-3.65D-06 F= -7.30D-09
     Reject lnstep minimum 1.001D+00 FVal=-3.085942367944D+02 Lims=  0.00D+00  1.00D+00
     ILin= 3 X=2.000D+00 Y=-3.085942331673D+02 DE=-1.91D-08 F=  7.26D-06
     An  expanding polynomial of degree  3 produced  1.0013
     Minimum is close to point  2 DX=  1.31D-03 DF= -6.31D-12 DXR=  1.31D-03 DFR=  1.73D-06 which will be used.
 Iteration   5 EE= -308.594236794427     Delta-E=       -0.000003646231 Grad=5.071D-06 Max rot=    0.0000 deg.
 QCNR:  CnvC1=5.07D-11 CnvC2=5.07D-10
 LinEq1:  Iter=  0 NonCon=     1 RMS=8.21D-08 Max=1.87D-06 NDo=     1
 LinEq1:  Iter=  1 NonCon=     1 RMS=5.48D-08 Max=1.02D-06 NDo=     1
 LinEq1:  Iter=  2 NonCon=     1 RMS=3.08D-08 Max=6.81D-07 NDo=     1
 LinEq1:  Iter=  3 NonCon=     1 RMS=2.08D-08 Max=4.29D-07 NDo=     1
 LinEq1:  Iter=  4 NonCon=     1 RMS=1.42D-08 Max=2.80D-07 NDo=     1
 LinEq1:  Iter=  5 NonCon=     1 RMS=7.02D-09 Max=1.81D-07 NDo=     1
 LinEq1:  Iter=  6 NonCon=     1 RMS=3.74D-09 Max=4.99D-08 NDo=     1
 LinEq1:  Iter=  7 NonCon=     1 RMS=1.83D-09 Max=3.68D-08 NDo=     1
 LinEq1:  Iter=  8 NonCon=     1 RMS=7.02D-10 Max=2.22D-08 NDo=     1
 LinEq1:  Iter=  9 NonCon=     1 RMS=3.11D-10 Max=7.81D-09 NDo=     1
 LinEq1:  Iter= 10 NonCon=     1 RMS=1.64D-10 Max=2.09D-09 NDo=     1
 LinEq1:  Iter= 11 NonCon=     1 RMS=5.17D-11 Max=1.24D-09 NDo=     1
 LinEq1:  Iter= 12 NonCon=     0 RMS=1.92D-11 Max=4.98D-10 NDo=     1
 Linear equations converged to 5.071D-11 5.071D-10 after    12 iterations.
 Angle between quadratic step and gradient=  68.69 degrees.
     ILin= 1 X=0.000D+00 Y=-3.085942367944D+02 DE= 0.00D+00 F= -9.45D-11
     ILin= 2 X=1.000D+00 Y=-3.085942367945D+02 DE=-4.64D-11
 Iteration   6 EE= -308.594236794474     Delta-E=       -0.000000000046 Grad=1.547D-08 Max rot=    0.0000 deg.
 Rotation gradient small -- convergence achieved.
 SCF Done:  E(UM062X) =  -308.594236794     a.u. after    6 cycles
            Convg  =    0.1547D-07                    58 Fock formations.
              S**2 =  0.4393                  -V/T =  2.0090
 <Sx>= 0.0000 <Sy>= 0.0000 <Sz>= 0.0000 <S**2>= 0.4393 S= 0.3302
 <L.S>=  0.00000000000    
 Annihilation of the first spin contaminant:
 S**2 before annihilation     0.4393,   after     0.0048
 Leave Link  508 at Sun Apr  3 10:25:56 2022, MaxMem=   104857600 cpu:             406.7 elap:             407.6
 (Enter /apps/software/g16/l801.exe)
 DoSCS=F DFT=T ScalE2(SS,OS)=  1.000000  1.000000
 Range of M.O.s used for correlation:     1   110
 NBasis=   110 NAE=    25 NBE=    25 NFC=     0 NFV=     0
 NROrb=    110 NOA=    25 NOB=    25 NVA=    85 NVB=    85
[...]
    11  H   -0.002824  -0.027701  -0.000019   0.000023   0.001890  -0.002696
    12  H    0.006012  -0.026789  -0.000069  -0.000153  -0.000105  -0.007099
    13  H   -0.006760  -0.026934   0.004135  -0.000049   0.000229   0.006083
    14  O   -0.056100   0.170783   0.001012  -0.003907   0.003360  -0.055182
    15  O   -0.006057  -0.007068  -0.000159   0.006228   0.000150  -0.003928
    16  H    0.000332  -0.001225   0.000001  -0.000217  -0.000016   0.001320
               7          8          9         10         11         12
     1  C   -0.064933   0.005821  -0.000194  -0.005166  -0.002824   0.006012
     2  C    0.371727  -0.027246  -0.026154  -0.027865  -0.027701  -0.026789
     3  H   -0.005335  -0.000175  -0.000112  -0.000003  -0.000019  -0.000069
     4  H    0.004706  -0.000018   0.000118   0.003144   0.000023  -0.000153
     5  H   -0.003406  -0.000098   0.000846   0.000106   0.001890  -0.000105
     6  C   -0.063738   0.369043   0.358802   0.374541  -0.002696  -0.007099
     7  C    5.182387  -0.005318  -0.002721   0.005102   0.372019   0.372074
     8  H   -0.005318   0.543168  -0.025068  -0.025709  -0.000014   0.004153
     9  H   -0.002721  -0.025068   0.560051  -0.025294   0.001527   0.000258
    10  H    0.005102  -0.025709  -0.025294   0.523654  -0.000001  -0.000053
    11  H    0.372019  -0.000014   0.001527  -0.000001   0.529917  -0.024813
    12  H    0.372074   0.004153   0.000258  -0.000053  -0.024813   0.526974
    13  H    0.372915  -0.000090  -0.000099  -0.000156  -0.024060  -0.026058
    14  O   -0.048883   0.001252   0.003314  -0.003299   0.003149  -0.000313
    15  O    0.001425  -0.000328   0.000221   0.008858  -0.000020  -0.000025
    16  H   -0.000061   0.000165  -0.000022  -0.000149   0.000000   0.000002
              13         14         15         16
     1  C   -0.006760  -0.056100  -0.006057   0.000332
     2  C   -0.026934   0.170783  -0.007068  -0.001225
     3  H    0.004135   0.001012  -0.000159   0.000001
     4  H   -0.000049  -0.003907   0.006228  -0.000217
     5  H    0.000229   0.003360   0.000150  -0.000016
     6  C    0.006083  -0.055182  -0.003928   0.001320
     7  C    0.372915  -0.048883   0.001425  -0.000061
     8  H   -0.000090   0.001252  -0.000328   0.000165
     9  H   -0.000099   0.003314   0.000221  -0.000022
    10  H   -0.000156  -0.003299   0.008858  -0.000149
    11  H   -0.024060   0.003149  -0.000020   0.000000
    12  H   -0.026058  -0.000313  -0.000025   0.000002
    13  H    0.519092  -0.000151  -0.000022   0.000001
    14  O   -0.000151   8.225106   0.063541   0.001001
    15  O   -0.000022   0.063541   8.187308   0.207692
    16  H    0.000001   0.001001   0.207692   0.370517
          Atomic-Atomic Spin Densities.
               1          2          3          4          5          6
     1  C    0.011949   0.004262   0.000571  -0.001791   0.000348   0.003505
     2  C    0.004262  -0.031363   0.000135   0.000707   0.000286   0.004305
     3  H    0.000571   0.000135  -0.000213  -0.000151  -0.000222   0.000004
     4  H   -0.001791   0.000707  -0.000151  -0.000564   0.000743  -0.000269
     5  H    0.000348   0.000286  -0.000222   0.000743  -0.002085  -0.000502
     6  C    0.003505   0.004305   0.000004  -0.000269  -0.000502   0.004136
     7  C   -0.007324   0.012414  -0.000385   0.000150   0.000767  -0.004507
     8  H    0.000056   0.000187   0.000002  -0.000011   0.000003   0.000534
     9  H   -0.000416   0.000220   0.000004   0.000053   0.000051   0.000378
    10  H   -0.000513   0.000216  -0.000007   0.000071   0.000069  -0.001597
    11  H    0.001685  -0.002303   0.000101  -0.000027  -0.000484   0.000928
    12  H   -0.000012   0.000371   0.000007  -0.000001   0.000005   0.000288
    13  H    0.000213   0.000533  -0.000037  -0.000000  -0.000026  -0.000056
    14  O   -0.002591  -0.022690  -0.000290   0.000572  -0.000015  -0.000384
    15  O    0.000855  -0.001481   0.000046   0.000677  -0.000029  -0.000536
    16  H   -0.000077  -0.000088  -0.000002  -0.000035   0.000002   0.000033
               7          8          9         10         11         12
     1  C   -0.007324   0.000056  -0.000416  -0.000513   0.001685  -0.000012
     2  C    0.012414   0.000187   0.000220   0.000216  -0.002303   0.000371
     3  H   -0.000385   0.000002   0.000004  -0.000007   0.000101   0.000007
     4  H    0.000150  -0.000011   0.000053   0.000071  -0.000027  -0.000001
     5  H    0.000767   0.000003   0.000051   0.000069  -0.000484   0.000005
     6  C   -0.004507   0.000534   0.000378  -0.001597   0.000928   0.000288
     7  C    0.058470  -0.000578   0.000630   0.000220  -0.008416  -0.001124
     8  H   -0.000578   0.000093  -0.000155  -0.000320   0.000143  -0.000020
     9  H    0.000630  -0.000155  -0.002287   0.000720  -0.000369  -0.000025
    10  H    0.000220  -0.000320   0.000720   0.000218  -0.000035  -0.000005
    11  H   -0.008416   0.000143  -0.000369  -0.000035   0.019761   0.000753
    12  H   -0.001124  -0.000020  -0.000025  -0.000005   0.000753  -0.002432
    13  H   -0.000428   0.000005   0.000007   0.000000   0.000286   0.000226
    14  O   -0.015325  -0.000285  -0.000039   0.000600   0.000896   0.000532
    15  O   -0.000117   0.000120  -0.000016   0.000791   0.000002   0.000014
    16  H    0.000031  -0.000058   0.000006   0.000006  -0.000001  -0.000003
              13         14         15         16
     1  C    0.000213  -0.002591   0.000855  -0.000077
     2  C    0.000533  -0.022690  -0.001481  -0.000088
     3  H   -0.000037  -0.000290   0.000046  -0.000002
     4  H   -0.000000   0.000572   0.000677  -0.000035
     5  H   -0.000026  -0.000015  -0.000029   0.000002
     6  C   -0.000056  -0.000384  -0.000536   0.000033
     7  C   -0.000428  -0.015325  -0.000117   0.000031
     8  H    0.000005  -0.000285   0.000120  -0.000058
     9  H    0.000007  -0.000039  -0.000016   0.000006
    10  H    0.000000   0.000600   0.000791   0.000006
    11  H    0.000286   0.000896   0.000002  -0.000001
    12  H    0.000226   0.000532   0.000014  -0.000003
    13  H   -0.002209   0.000052   0.000004  -0.000000
    14  O    0.000052   0.635556   0.018988   0.001432
    15  O    0.000004   0.018988  -0.687101   0.000483
    16  H   -0.000000   0.001432   0.000483   0.023817
 Mulliken charges and spin densities:
               1          2
     1  C   -0.469155   0.010721
     2  C    0.256505  -0.034289
     3  H    0.167982  -0.000436
     4  H    0.188750   0.000124
     5  H    0.147541  -0.001088
     6  C   -0.480662   0.006259
     7  C   -0.487959   0.034478
     8  H    0.160462  -0.000285
     9  H    0.154529  -0.001240
    10  H    0.172291   0.000433
    11  H    0.173623   0.012921
    12  H    0.176006  -0.001426
    13  H    0.181923  -0.001428
    14  O   -0.304682   0.617010
    15  O   -0.457815  -0.667300
    16  H    0.420660   0.025545
 Sum of Mulliken charges =   0.00000   0.00000
 Mulliken charges and spin densities with hydrogens summed into heavy atoms:
               1          2
     1  C    0.035118   0.009321
     2  C    0.256505  -0.034289
     6  C    0.006621   0.005168
     7  C    0.043593   0.044545
    14  O   -0.304682   0.617010
    15  O   -0.037155  -0.641755
 Electronic spatial extent (au):  <R**2>=           1477.9688
 Charge=              0.0000 electrons
 Dipole moment (field-independent basis, Debye):
    X=              0.9308    Y=             -1.4206    Z=              1.1897  Tot=              2.0736
 Quadrupole moment (field-independent basis, Debye-Ang):
   XX=            -41.4720   YY=            -37.5071   ZZ=            -35.1512
   XY=              2.0036   XZ=             -5.4173   YZ=              3.0921
 Traceless Quadrupole moment (field-independent basis, Debye-Ang):
   XX=             -3.4286   YY=              0.5364   ZZ=              2.8922
   XY=              2.0036   XZ=             -5.4173   YZ=              3.0921
 Octapole moment (field-independent basis, Debye-Ang**2):
  XXX=            253.0195  YYY=             48.2601  ZZZ=            -12.6365  XYY=             79.1160
  XXY=             13.4156  XXZ=             15.5798  XZZ=             83.8313  YZZ=              6.2931
  YYZ=             -1.8229  XYZ=             -3.8508
 Hexadecapole moment (field-independent basis, Debye-Ang**3):
 XXXX=          -1274.6295 YYYY=           -244.9223 ZZZZ=           -352.0854 XXXY=            -96.7470
 XXXZ=            -49.6546 YYYX=            -98.7022 YYYZ=             -7.9676 ZZZX=            -14.8286
 ZZZY=             10.4549 XXYY=           -243.1749 XXZZ=           -297.4925 YYZZ=            -99.9034
 XXYZ=              0.9973 YYXZ=             -3.2932 ZZXY=            -17.8323
 N-N= 2.602456244823D+02 E-N=-1.241262162142D+03  KE= 3.058565845972D+02
                          Isotropic Fermi Contact Couplings
        Atom                 a.u.       MegaHertz       Gauss      10(-4) cm-1
     1  C(13)              0.00534       3.00153       1.07102       1.00120
     2  C(13)             -0.01719      -9.66041      -3.44708      -3.22237
     3  H(1)              -0.00014      -0.30604      -0.10920      -0.10208
     4  H(1)              -0.00022      -0.48151      -0.17182      -0.16062
     5  H(1)              -0.00036      -0.80782      -0.28825      -0.26946
     6  C(13)              0.00266       1.49277       0.53266       0.49793
     7  C(13)              0.04089      22.98319       8.20097       7.66637
     8  H(1)              -0.00009      -0.20604      -0.07352      -0.06873
     9  H(1)              -0.00044      -0.97880      -0.34926      -0.32649
    10  H(1)              -0.00021      -0.47038      -0.16784      -0.15690
    11  H(1)               0.00491      10.96864       3.91388       3.65875
    12  H(1)              -0.00043      -0.95243      -0.33985      -0.31770
    13  H(1)              -0.00033      -0.74654      -0.26639      -0.24902
    14  O(17)             -0.03449      10.45245       3.72970       3.48656
    15  O(17)             -0.00601       1.82179       0.65006       0.60768
    16  H(1)               0.01087      24.29551       8.66924       8.10411
 --------------------------------------------------------
       Center         ----  Spin Dipole Couplings  ----
                      3XX-RR        3YY-RR        3ZZ-RR
 --------------------------------------------------------
     1   Atom        0.017706     -0.006797     -0.010910
     2   Atom       -0.007829      0.000195      0.007634
     3   Atom        0.006322     -0.002139     -0.004183
     4   Atom        0.004051      0.002351     -0.006403
     5   Atom        0.001652     -0.000343     -0.001309
     6   Atom       -0.005006      0.013655     -0.008649
     7   Atom       -0.024542     -0.022811      0.047353
     8   Atom       -0.000979      0.005173     -0.004195
     9   Atom       -0.001440      0.003049     -0.001610
    10   Atom        0.000113      0.004870     -0.004983
    11   Atom       -0.003536     -0.001667      0.005203
    12   Atom        0.004011     -0.006995      0.002984
    13   Atom       -0.006737      0.002322      0.004415
    14   Atom       -0.163982     -0.074398      0.238380
    15   Atom        0.199521      0.564177     -0.763698
    16   Atom       -0.078264      0.046897      0.031367
 --------------------------------------------------------
                        XY            XZ            YZ
 --------------------------------------------------------
     1   Atom        0.005800     -0.004585     -0.002555
     2   Atom        0.011103      0.002926     -0.002775
     3   Atom       -0.000598     -0.002295     -0.000910
     4   Atom        0.003464      0.005338      0.001668
     5   Atom        0.001929     -0.001382     -0.001599
     6   Atom       -0.003354     -0.001358     -0.002373
     7   Atom        0.006489      0.019847      0.021465
     8   Atom       -0.003534     -0.000789     -0.001107
     9   Atom        0.000328     -0.000626     -0.001417
    10   Atom        0.002312     -0.001273      0.005845
    11   Atom        0.001608     -0.001793     -0.003809
    12   Atom        0.001081      0.006603     -0.000672
    13   Atom       -0.002280     -0.002236      0.006094
    14   Atom        0.962194      1.163079      1.160452
    15   Atom       -0.733436     -1.364815     -1.066515
    16   Atom        0.050483      0.046211     -0.036933
 --------------------------------------------------------


 ---------------------------------------------------------------------------------
              Anisotropic Spin Dipole Couplings in Principal Axis System
 ---------------------------------------------------------------------------------

       Atom             a.u.   MegaHertz   Gauss  10(-4) cm-1        Axes

              Baa    -0.0123    -1.644    -0.587    -0.548  0.0731  0.3582  0.9308
     1 C(13)  Bbb    -0.0076    -1.018    -0.363    -0.339 -0.2672  0.9062 -0.3277
              Bcc     0.0198     2.662     0.950     0.888  0.9609  0.2248 -0.1620
 
              Baa    -0.0163    -2.186    -0.780    -0.729  0.8050 -0.5700 -0.1646
     2 C(13)  Bbb     0.0075     1.012     0.361     0.338  0.5402  0.5896  0.6005
              Bcc     0.0087     1.174     0.419     0.392 -0.2452 -0.5723  0.7825
 
              Baa    -0.0050    -2.678    -0.956    -0.893  0.2038  0.3330  0.9206
     3 H(1)   Bbb    -0.0018    -0.960    -0.343    -0.320 -0.0253  0.9418 -0.3351
              Bcc     0.0068     3.638     1.298     1.214  0.9787 -0.0450 -0.2004
 
              Baa    -0.0087    -4.615    -1.647    -1.540 -0.3828 -0.0195  0.9236
     4 H(1)   Bbb     0.0000     0.005     0.002     0.002 -0.4879  0.8532 -0.1842
              Bcc     0.0086     4.610     1.645     1.538  0.7845  0.5212  0.3361
 
              Baa    -0.0025    -1.332    -0.475    -0.444 -0.0165  0.6054  0.7958
     5 H(1)   Bbb    -0.0012    -0.618    -0.220    -0.206  0.6449 -0.6018  0.4712
              Bcc     0.0037     1.950     0.696     0.651  0.7641  0.5209 -0.3805
 
              Baa    -0.0096    -1.288    -0.459    -0.429  0.3784  0.1479  0.9138
     6 C(13)  Bbb    -0.0048    -0.649    -0.232    -0.217  0.9112  0.1144 -0.3958
              Bcc     0.0144     1.937     0.691     0.646 -0.1631  0.9824 -0.0914
 
              Baa    -0.0303    -4.062    -1.450    -1.355  0.8345 -0.5474 -0.0620
     7 C(13)  Bbb    -0.0284    -3.806    -1.358    -1.269  0.4943  0.7937 -0.3546
              Bcc     0.0586     7.868     2.807     2.624  0.2433  0.2653  0.9330
 
              Baa    -0.0048    -2.587    -0.923    -0.863  0.3984  0.2384  0.8857
     8 H(1)   Bbb    -0.0020    -1.055    -0.376    -0.352  0.8222  0.3351 -0.4600
              Bcc     0.0068     3.641     1.299     1.215 -0.4065  0.9115 -0.0625
 
              Baa    -0.0023    -1.239    -0.442    -0.413  0.5212  0.1879  0.8325
     9 H(1)   Bbb    -0.0012    -0.626    -0.223    -0.209  0.8477 -0.2268 -0.4796
              Bcc     0.0035     1.865     0.665     0.622  0.0988  0.9556 -0.2775
 
              Baa    -0.0083    -4.403    -1.571    -1.469  0.2509 -0.4304  0.8671
    10 H(1)   Bbb     0.0003     0.182     0.065     0.061  0.9464 -0.0791 -0.3131
              Bcc     0.0079     4.221     1.506     1.408  0.2033  0.8992  0.3875
 
              Baa    -0.0045    -2.393    -0.854    -0.798  0.8235 -0.5631 -0.0690
    11 H(1)   Bbb    -0.0029    -1.545    -0.551    -0.515  0.5285  0.7171  0.4543
              Bcc     0.0074     3.938     1.405     1.313 -0.2063 -0.4106  0.8882
 
              Baa    -0.0074    -3.926    -1.401    -1.309 -0.2028  0.9602  0.1919
    12 H(1)   Bbb    -0.0028    -1.478    -0.527    -0.493 -0.6469 -0.2785  0.7099
              Bcc     0.0101     5.404     1.928     1.802  0.7351  0.0198  0.6776
 
              Baa    -0.0074    -3.924    -1.400    -1.309  0.9807  0.1688  0.0989
    13 H(1)   Bbb    -0.0028    -1.491    -0.532    -0.497 -0.0634  0.7524 -0.6556
              Bcc     0.0101     5.415     1.932     1.806 -0.1851  0.6367  0.7486
 
              Baa    -1.1443    82.803    29.546    27.620  0.7164  0.1039 -0.6899
    14 O(17)  Bbb    -1.0673    77.226    27.556    25.760 -0.4463  0.8283 -0.3387
              Bcc     2.2116  -160.029   -57.102   -53.380  0.5362  0.5505  0.6398
 
              Baa    -2.3118   167.283    59.691    55.800  0.5250  0.4104  0.7456
    15 O(17)  Bbb     1.1376   -82.316   -29.373   -27.458 -0.6112  0.7915 -0.0052
              Bcc     1.1742   -84.966   -30.318   -28.342 -0.5923 -0.4530  0.6664
 
              Baa    -0.1174   -62.624   -22.346   -20.889  0.8679 -0.3467 -0.3557
    16 H(1)   Bbb     0.0394    21.046     7.510     7.020  0.4858  0.4431  0.7534
              Bcc     0.0779    41.578    14.836    13.869  0.1036  0.8267 -0.5530
 

 ---------------------------------------------------------------------------------

 No NMR shielding tensors so no spin-rotation constants.
 Leave Link  601 at Sun Apr  3 10:29:04 2022, MaxMem=   104857600 cpu:               0.1 elap:               0.2
 (Enter /apps/software/g16/l9999.exe)
 1\1\GINC-CNODE12\Stability\UM062X\6-31G(d)\C4H10O2\LCZ\03-Apr-2022\0\\
 #p stable=opt 6-31g(d) nosymm guess=mix um062x\\tBuOOH guess=mix stabl
 e=opt\\0,1\C,0,-3.59509438,-0.40108447,0.45021209\C,0,-2.07308138,-0.3
 7481447,0.35838909\H,0,-3.98463038,0.62010353,0.49161709\H,0,-4.020375
 38,-0.90135147,-0.42275491\H,0,-3.91242738,-0.93572847,1.35096809\C,0,
 -1.49025538,-1.78252647,0.27088009\C,0,-1.46081538,0.40500353,1.517128
 09\H,0,-0.40235038,-1.73512147,0.15501909\H,0,-1.71505438,-2.34531947,
 1.18173609\H,0,-1.91675238,-2.32379847,-0.57771891\H,0,-1.71481438,-0.
 07708447,2.46539209\H,0,-0.37176638,0.44174953,1.42258609\H,0,-1.84548
 138,1.42840853,1.52944109\O,0,-1.66577638,0.40114453,-0.78069891\O,0,-
 2.36682562,-0.40606353,-2.35135009\H,0,-1.55593562,-0.76398453,-2.7473
 9209\\Version=ES64L-G16RevA.03\HF=-308.5942368\S2=0.439287\S2-1=0.\S2A
 =0.004771\RMSD=2.373e-10\Dipole=0.3662071,-0.5589122,0.4680541\Quadrup
 ole=-2.5490922,0.3987762,2.1503161,1.489629,-4.0276472,2.2988798\PG=C0
 1 [X(C4H10O2)]\\@


 PATIENCE IS THE ABILITY TO IDLE YOUR MOTOR WHEN
 YOU FEEL LIKE STRIPPING YOUR GEARS.
 Job cpu time:       0 days  0 hours 14 minutes 43.6 seconds.
 Elapsed time:       0 days  0 hours 14 minutes 45.3 seconds.
 File lengths (MBytes):  RWF=    115 Int=      0 D2E=      0 Chk=      3 Scr=      1
 Normal termination of Gaussian 16 at Sun Apr  3 10:29:05 2022.

Sender: Unischeduler System <lcz@mgt01>
Subject: Job 113755: <#!/bin/bash
#BSUB -J intel
#BSUB -o tBu-opt.out
#BSUB -n 8
#BSUB -q cqueue
#BSUB -R span[hosts=1]
export g16root=/apps/software
source /apps/software/g16/bsd/g16.profile
export GAUSS_SCRDIR=/scratch
/apps/software/g16/g16 < tBu-opt.gjf > tBu-opt.out> Done

Job <#!/bin/bash
#BSUB -J intel
#BSUB -o tBu-opt.out
#BSUB -n 8
#BSUB -q cqueue
#BSUB -R span[hosts=1]
export g16root=/apps/software
source /apps/software/g16/bsd/g16.profile
export GAUSS_SCRDIR=/scratch
/apps/software/g16/g16 < tBu-opt.gjf > tBu-opt.out> was submitted from host <mgt01> by user <lcz>.
Job was executed on host(s) <8*cnode12>, in queue <cqueue>, as user <lcz>.
</apps/users/lcz> was used as the home directory.
</apps/users/lcz/exe4/task4/tBuOOH/opt/geomopt/stable> was used as the working directory.
Started at 2022-04-03 10:14:18
Results reported at 2022-04-03 10:29:05

Your job looked like:

------------------------------------------------------------
# User input
#!/bin/bash
#BSUB -J intel
#BSUB -o tBu-opt.out
#BSUB -n 8
#BSUB -q cqueue
#BSUB -R span[hosts=1]
export g16root=/apps/software
source /apps/software/g16/bsd/g16.profile
export GAUSS_SCRDIR=/scratch
/apps/software/g16/g16 < tBu-opt.gjf > tBu-opt.out
------------------------------------------------------------

Successfully completed.

Resource usage summary:

    CPU time   :          874.03 sec.
    Max Memory :               431 MB
    Max Processes  :               5


The output (if any) follows:

