
                                        *****************
                                        * O   R   C   A *
                                        *****************

                                            #,                                       
                                            ###                                      
                                            ####                                     
                                            #####                                    
                                            ######                                   
                                           ########,                                 
                                     ,,################,,,,,                         
                               ,,#################################,,                 
                          ,,##########################################,,             
                       ,#########################################, ''#####,          
                    ,#############################################,,   '####,        
                  ,##################################################,,,,####,       
                ,###########''''           ''''###############################       
              ,#####''   ,,,,##########,,,,          '''####'''          '####       
            ,##' ,,,,###########################,,,                        '##       
           ' ,,###''''                  '''############,,,                           
         ,,##''                                '''############,,,,        ,,,,,,###''
      ,#''                                            '''#######################'''  
     '                                                          ''''####''''         
             ,#######,   #######,   ,#######,      ##                                
            ,#'     '#,  ##    ##  ,#'     '#,    #''#        ######   ,####,        
            ##       ##  ##   ,#'  ##            #'  '#       #        #'  '#        
            ##       ##  #######   ##           ,######,      #####,   #    #        
            '#,     ,#'  ##    ##  '#,     ,#' ,#      #,         ##   #,  ,#        
             '#######'   ##     ##  '#######'  #'      '#     #####' # '####'        



                  #######################################################
                  #                        -***-                        #
                  #          Department of theory and spectroscopy      #
                  #    Directorship and core code : Frank Neese         #
                  #        Max Planck Institute fuer Kohlenforschung    #
                  #                Kaiser Wilhelm Platz 1               #
                  #                 D-45470 Muelheim/Ruhr               #
                  #                      Germany                        #
                  #                                                     #
                  #                  All rights reserved                #
                  #                        -***-                        #
                  #######################################################


                         Program Version 5.0.0 -  RELEASE  -
                                (SVN: $Rev: 19529$)
                ($Date: 2021-06-28 11:36:33 +0200 (Mo, 28 Jun 2021) $)


 With contributions from (in alphabetic order):
   Daniel Aravena         : Magnetic Suceptibility
   Michael Atanasov       : Ab Initio Ligand Field Theory (pilot matlab implementation)
   Alexander A. Auer      : GIAO ZORA, VPT2 properties, NMR spectrum
   Ute Becker             : Parallelization
   Giovanni Bistoni       : ED, misc. LED, open-shell LED, HFLD
   Martin Brehm           : Molecular dynamics
   Dmytro Bykov           : SCF Hessian
   Vijay G. Chilkuri      : MRCI spin determinant printing, contributions to CSF-ICE
   Dipayan Datta          : RHF DLPNO-CCSD density
   Achintya Kumar Dutta   : EOM-CC, STEOM-CC
   Dmitry Ganyushin       : Spin-Orbit,Spin-Spin,Magnetic field MRCI
   Miquel Garcia          : C-PCM Hessian, Gaussian charge scheme
   Yang Guo               : DLPNO-NEVPT2, F12-NEVPT2, CIM, IAO-localization
   Andreas Hansen         : Spin unrestricted coupled pair/coupled cluster methods
   Benjamin Helmich-Paris : MC-RPA, TRAH-SCF, COSX integrals
   Lee Huntington         : MR-EOM, pCC
   Robert Izsak           : Overlap fitted RIJCOSX, COSX-SCS-MP3, EOM
   Marcus Kettner         : VPT2
   Christian Kollmar      : KDIIS, OOCD, Brueckner-CCSD(T), CCSD density, CASPT2, CASPT2-K
   Simone Kossmann        : Meta GGA functionals, TD-DFT gradient, OOMP2, MP2 Hessian
   Martin Krupicka        : Initial AUTO-CI
   Lucas Lang             : DCDCAS
   Marvin Lechner         : AUTO-CI (C++ implementation), FIC-MRCC
   Dagmar Lenk            : GEPOL surface, SMD
   Dimitrios Liakos       : Extrapolation schemes; Compound Job, initial MDCI parallelization
   Dimitrios Manganas     : Further ROCIS development; embedding schemes
   Dimitrios Pantazis     : SARC Basis sets
   Anastasios Papadopoulos: AUTO-CI, single reference methods and gradients
   Taras Petrenko         : DFT Hessian,TD-DFT gradient, ASA, ECA, R-Raman, ABS, FL, XAS/XES, NRVS
   Peter Pinski           : DLPNO-MP2, DLPNO-MP2 Gradient
   Christoph Reimann      : Effective Core Potentials
   Marius Retegan         : Local ZFS, SOC
   Christoph Riplinger    : Optimizer, TS searches, QM/MM, DLPNO-CCSD(T), (RO)-DLPNO pert. Triples
   Tobias Risthaus        : Range-separated hybrids, TD-DFT gradient, RPA, STAB
   Michael Roemelt        : Original ROCIS implementation
   Masaaki Saitow         : Open-shell DLPNO-CCSD energy and density
   Barbara Sandhoefer     : DKH picture change effects
   Avijit Sen             : IP-ROCIS
   Kantharuban Sivalingam : CASSCF convergence, NEVPT2, FIC-MRCI
   Bernardo de Souza      : ESD, SOC TD-DFT
   Georgi Stoychev        : AutoAux, RI-MP2 NMR
   Willem Van den Heuvel  : Paramagnetic NMR
   Boris Wezisla          : Elementary symmetry handling
   Frank Wennmohs         : Technical directorship


 We gratefully acknowledge several colleagues who have allowed us to
 interface, adapt or use parts of their codes:
   Stefan Grimme, W. Hujo, H. Kruse, P. Pracht,  : VdW corrections, initial TS optimization,
                  C. Bannwarth, S. Ehlert          DFT functionals, gCP, sTDA/sTD-DF
   Ed Valeev, F. Pavosevic, A. Kumar             : LibInt (2-el integral package), F12 methods
   Garnet Chan, S. Sharma, J. Yang, R. Olivares  : DMRG
   Ulf Ekstrom                                   : XCFun DFT Library
   Mihaly Kallay                                 : mrcc  (arbitrary order and MRCC methods)
   Jiri Pittner, Ondrej Demel                    : Mk-CCSD
   Frank Weinhold                                : gennbo (NPA and NBO analysis)
   Christopher J. Cramer and Donald G. Truhlar   : smd solvation model
   Lars Goerigk                                  : TD-DFT with DH, B97 family of functionals
   V. Asgeirsson, H. Jonsson                     : NEB implementation
   FAccTs GmbH                                   : IRC, NEB, NEB-TS, DLPNO-Multilevel, CI-OPT
                                                   MM, QMMM, 2- and 3-layer-ONIOM, Crystal-QMMM,
                                                   LR-CPCM, SF, NACMEs, symmetry and pop. for TD-DFT,
                                                   nearIR, NL-DFT gradient (VV10), updates on ESD,
                                                   ML-optimized integration grids
   S Lehtola, MJT Oliveira, MAL Marques          : LibXC Library
   Liviu Ungur et al                             : ANISO software


 Your calculation uses the libint2 library for the computation of 2-el integrals
 For citations please refer to: http://libint.valeyev.net

 Your ORCA version has been built with support for libXC version: 5.1.0
 For citations please refer to: https://tddft.org/programs/libxc/

 This ORCA versions uses:
   CBLAS   interface :  Fast vector & matrix operations
   LAPACKE interface :  Fast linear algebra routines
   SCALAPACK package :  Parallel linear algebra routines
   Shared memory     :  Shared parallel matrices
   BLAS/LAPACK       :  OpenBLAS 0.3.15  USE64BITINT DYNAMIC_ARCH NO_AFFINITY SkylakeX SINGLE_THREADED
        Core in use  :  SkylakeX
   Copyright (c) 2011-2014, The OpenBLAS Project


================================================================================

----- Orbital basis set information -----
Your calculation utilizes the basis: def2-SVP
   F. Weigend and R. Ahlrichs, Phys. Chem. Chem. Phys. 7, 3297 (2005).

================================================================================
                                        WARNINGS
                       Please study these warnings very carefully!
================================================================================

INFO   : Checking CIS options ...

WARNING: CIS/ROCIS methods need fully converged wavefunctions
  ===> : Setting SCFConvForced true
         You can overwrite this default with %scf ConvForced false 


INFO   : the flag for use of the SHARK integral package has been found!

================================================================================
                                       INPUT FILE
================================================================================
NAME = benzeneDimer-CIS.inp
|  1> ! RHF def2-SVP pal8
|  2> 
|  3> %cis 
|  4>     NRoots      18
|  5>     printlevel  3
|  6> end
|  7> 
|  8> # BenzeneDimer CIS
|  9> 
| 10> *xyz 0 1
| 11>  C    0.275339664905    -0.458399102833    2.743143403700
| 12>  C    1.279006847437    0.228940885018    2.053971964849
| 13>  C    0.939622874510    1.231612429254    1.139882080053
| 14>  C    -0.402424351875    1.548739845978    0.916642984919
| 15>  C    -1.406698760230    0.863818487970    1.607817662361
| 16>  C    -1.068977646094    -0.140122820687    2.520286918876
| 17>  H    0.539603706561    -1.241898862747    3.454437267994
| 18>  H    2.326588004763    -0.022157300550    2.223964486000
| 19>  H    1.720832792185    1.755051800886    0.589301977320
| 20>  H    -0.666403863041    2.316697890287    0.190217604195
| 21>  H    -2.454419062639    1.106539982179    1.427829033755
| 22>  H    -1.852402130973    -0.676071740128    3.057547529767
| 23>  C    0.408637071405    -1.547138908805    -0.917226197790
| 24>  C    1.408439887136    -0.859383018412    -1.612070091004
| 25>  C    1.064503595865    0.142964356786    -2.523961075999
| 26>  C    -0.281557623713    0.456819421173    -2.742536095802
| 27>  C    -1.280735610329    -0.233330090254    -2.049663508775
| 28>  C    -0.935147882928    -1.234436127477    -1.136182768651
| 29>  H    0.677439446996    -2.313917010173    -0.191321675612
| 30>  H    2.457518043610    -1.098728344182    -1.435489418777
| 31>  H    1.844432727521    0.681106942624    -3.064104221734
| 32>  H    -0.550678756658    1.239051458125    -3.453403954344
| 33>  H    -2.329668169039    0.014352845763    -2.216299435382
| 34>  H    -1.712850805428    -1.760113019904    -0.582784469921
| 35> *
| 36> 
| 37>                          ****END OF INPUT****
================================================================================

                       ****************************
                       * Single Point Calculation *
                       ****************************

---------------------------------
CARTESIAN COORDINATES (ANGSTROEM)
---------------------------------
  C      0.275340   -0.458399    2.743143
  C      1.279007    0.228941    2.053972
  C      0.939623    1.231612    1.139882
  C     -0.402424    1.548740    0.916643
  C     -1.406699    0.863818    1.607818
  C     -1.068978   -0.140123    2.520287
  H      0.539604   -1.241899    3.454437
  H      2.326588   -0.022157    2.223964
  H      1.720833    1.755052    0.589302
  H     -0.666404    2.316698    0.190218
  H     -2.454419    1.106540    1.427829
  H     -1.852402   -0.676072    3.057548
  C      0.408637   -1.547139   -0.917226
  C      1.408440   -0.859383   -1.612070
  C      1.064504    0.142964   -2.523961
  C     -0.281558    0.456819   -2.742536
  C     -1.280736   -0.233330   -2.049664
  C     -0.935148   -1.234436   -1.136183
  H      0.677439   -2.313917   -0.191322
  H      2.457518   -1.098728   -1.435489
  H      1.844433    0.681107   -3.064104
  H     -0.550679    1.239051   -3.453404
  H     -2.329668    0.014353   -2.216299
  H     -1.712851   -1.760113   -0.582784

----------------------------
CARTESIAN COORDINATES (A.U.)
----------------------------
  NO LB      ZA    FRAG     MASS         X           Y           Z
   0 C     6.0000    0    12.011    0.520317   -0.866249    5.183790
   1 C     6.0000    0    12.011    2.416973    0.432636    3.881445
   2 C     6.0000    0    12.011    1.775630    2.327410    2.154065
   3 C     6.0000    0    12.011   -0.760472    2.926694    1.732204
   4 C     6.0000    0    12.011   -2.658275    1.632380    3.038335
   5 C     6.0000    0    12.011   -2.020075   -0.264794    4.762652
   6 H     1.0000    0     1.008    1.019703   -2.346849    6.527940
   7 H     1.0000    0     1.008    4.396614   -0.041871    4.202684
   8 H     1.0000    0     1.008    3.251903    3.316567    1.113619
   9 H     1.0000    0     1.008   -1.259321    4.377925    0.359459
  10 H     1.0000    0     1.008   -4.638180    2.091058    2.698206
  11 H     1.0000    0     1.008   -3.500533   -1.277590    5.777927
  12 C     6.0000    0    12.011    0.772212   -2.923669   -1.733306
  13 C     6.0000    0    12.011    2.661566   -1.623999   -3.046371
  14 C     6.0000    0    12.011    2.011620    0.270163   -4.769595
  15 C     6.0000    0    12.011   -0.532067    0.863264   -5.182642
  16 C     6.0000    0    12.011   -2.420240   -0.440930   -3.873303
  17 C     6.0000    0    12.011   -1.767173   -2.332746   -2.147074
  18 H     1.0000    0     1.008    1.280175   -4.372669   -0.361546
  19 H     1.0000    0     1.008    4.644036   -2.076296   -2.712682
  20 H     1.0000    0     1.008    3.485473    1.287106   -5.790318
  21 H     1.0000    0     1.008   -1.040632    2.341468   -6.525988
  22 H     1.0000    0     1.008   -4.402435    0.027123   -4.188199
  23 H     1.0000    0     1.008   -3.236819   -3.326132   -1.101303

--------------------------------
INTERNAL COORDINATES (ANGSTROEM)
--------------------------------
 C      0   0   0     0.000000000000     0.00000000     0.00000000
 C      1   0   0     1.398120647269     0.00000000     0.00000000
 C      2   1   0     1.398603597946   120.02720787     0.00000000
 C      3   2   1     1.396959645044   120.02059576     0.11786200
 C      4   3   2     1.398358605176   119.98489139     0.02828102
 C      5   4   3     1.398053592051   120.05557252   359.87155525
 H      1   2   3     1.090709089941   120.04467635   179.86516878
 H      2   1   3     1.090584264157   119.96940731   180.45371099
 H      3   2   1     1.089686267131   120.04202053   181.10714249
 H      4   3   2     1.089558889594   119.95416036   181.17839393
 H      5   4   3     1.090425358408   119.96300179   180.45375556
 H      6   5   4     1.090708087333   120.05563254   180.15325459
 C      3   2   1     3.497870693527    81.47061405   279.09952116
 C     13   3   2     1.398363998053    78.05200631   240.72247590
 C     14  13   3     1.398047782279   120.05530833   273.04197970
 C     15  14  13     1.399343005691   119.95582686   359.91898033
 C     16  15  14     1.398118528207   119.95535546   359.93687479
 C     13   3   2     1.396954907241    93.46145976   120.78916484
 H     13   3   2     1.089559887835    97.45811572   359.96718020
 H     14  13   3     1.090427391972   119.96342723    92.46723230
 H     15  14  13     1.090706885915   120.05561065   179.84839010
 H     16  15  14     1.090709061180   120.00003966   179.96742053
 H     17  16  15     1.090584192785   119.96926804   179.70792104
 H     18  13   3     1.089682388558   119.93031514   259.15370650

---------------------------
INTERNAL COORDINATES (A.U.)
---------------------------
 C      0   0   0     0.000000000000     0.00000000     0.00000000
 C      1   0   0     2.642065125518     0.00000000     0.00000000
 C      2   1   0     2.642977770034   120.02720787     0.00000000
 C      3   2   1     2.639871149273   120.02059576     0.11786200
 C      4   3   2     2.642514800794   119.98489139     0.02828102
 C      5   4   3     2.641938409521   120.05557252   359.87155525
 H      1   2   3     2.061141471767   120.04467635   179.86516878
 H      2   1   3     2.060905585221   119.96940731   180.45371099
 H      3   2   1     2.059208616772   120.04202053   181.10714249
 H      4   3   2     2.058967908113   119.95416036   181.17839393
 H      5   4   3     2.060605296873   119.96300179   180.45375556
 H      6   5   4     2.061139577112   120.05563254   180.15325459
 C      3   2   1     6.610017662635    81.47061405   279.09952116
 C     13   3   2     2.642524991855    78.05200631   240.72247590
 C     14  13   3     2.641927430643   120.05530833   273.04197970
 C     15  14  13     2.644375048173   119.95582686   359.91898033
 C     16  15  14     2.642061121071   119.95535546   359.93687479
 C     13   3   2     2.639862196123    93.46145976   120.78916484
 H     13   3   2     2.058969794514    97.45811572   359.96718020
 H     14  13   3     2.060609139753   119.96342723    92.46723230
 H     15  14  13     2.061137306762   120.05561065   179.84839010
 H     16  15  14     2.061141417416   120.00003966   179.96742053
 H     17  16  15     2.060905450347   119.96926804   179.70792104
 H     18  13   3     2.059201287332   119.93031514   259.15370650

---------------------
BASIS SET INFORMATION
---------------------
There are 2 groups of distinct atoms

 Group   1 Type C   : 7s4p1d contracted to 3s2p1d pattern {511/31/1}
 Group   2 Type H   : 4s1p contracted to 2s1p pattern {31/1}

Atom   0C    basis set group =>   1
Atom   1C    basis set group =>   1
Atom   2C    basis set group =>   1
Atom   3C    basis set group =>   1
Atom   4C    basis set group =>   1
Atom   5C    basis set group =>   1
Atom   6H    basis set group =>   2
Atom   7H    basis set group =>   2
Atom   8H    basis set group =>   2
Atom   9H    basis set group =>   2
Atom  10H    basis set group =>   2
Atom  11H    basis set group =>   2
Atom  12C    basis set group =>   1
Atom  13C    basis set group =>   1
Atom  14C    basis set group =>   1
Atom  15C    basis set group =>   1
Atom  16C    basis set group =>   1
Atom  17C    basis set group =>   1
Atom  18H    basis set group =>   2
Atom  19H    basis set group =>   2
Atom  20H    basis set group =>   2
Atom  21H    basis set group =>   2
Atom  22H    basis set group =>   2
Atom  23H    basis set group =>   2
--------------------------------------------------------------------------
WARNING: There was an error initializing an OpenFabrics device.

  Local host:   cnode13
  Local device: mlx5_0
--------------------------------------------------------------------------


           ************************************************************
           *        Program running with 8 parallel MPI-processes     *
           *              working on a common directory               *
           ************************************************************
------------------------------------------------------------------------------
                           ORCA GTO INTEGRAL CALCULATION
------------------------------------------------------------------------------
------------------------------------------------------------------------------
                   ___                                                        
                  /   \      - P O W E R E D   B Y -                         
                 /     \                                                     
                 |  |  |   _    _      __       _____    __    __             
                 |  |  |  | |  | |    /  \     |  _  \  |  |  /  |          
                  \  \/   | |  | |   /    \    | | | |  |  | /  /          
                 / \  \   | |__| |  /  /\  \   | |_| |  |  |/  /          
                |  |  |   |  __  | /  /__\  \  |    /   |      \           
                |  |  |   | |  | | |   __   |  |    \   |  |\   \          
                \     /   | |  | | |  |  |  |  | |\  \  |  | \   \       
                 \___/    |_|  |_| |__|  |__|  |_| \__\ |__|  \__/        
                                                                              
                      - O R C A' S   B I G   F R I E N D -                    
                                      &                                       
                       - I N T E G R A L  F E E D E R -                       
                                                                              
 v1 FN, 2020, v2 2021                                                         
------------------------------------------------------------------------------


Reading SHARK input file benzeneDimer-CIS.SHARKINP.tmp ... ok
----------------------
SHARK INTEGRAL PACKAGE
----------------------

Number of atoms                             ...     24
Number of basis functions                   ...    228
Number of shells                            ...    108
Maximum angular momentum                    ...      2
Integral batch strategy                     ... SHARK/LIBINT Hybrid
RI-J (if used) integral strategy            ... SPLIT-RIJ (Revised 2003 algorithm where possible)
Printlevel                                  ...      1
Contraction scheme used                     ... SEGMENTED contraction
Coulomb Range Separation                    ... NOT USED
Exchange Range Separation                   ... NOT USED
Finite Nucleus Model                        ... NOT USED
Auxiliary Coulomb fitting basis             ... NOT available
Auxiliary J/K fitting basis                 ... NOT available
Auxiliary Correlation fitting basis         ... NOT available
Auxiliary 'external' fitting basis          ... NOT available
Integral threshold                          ...     1.000000e-10
Primitive cut-off                           ...     1.000000e-11
Primitive pair pre-selection threshold      ...     1.000000e-11

Calculating pre-screening integrals         ... done (  0.0 sec) Dimension = 108
Organizing shell pair data                  ... done (  0.0 sec)
Shell pair information
Total number of shell pairs                 ...      5886
Shell pairs after pre-screening             ...      5315
Total number of primitive shell pairs       ...     21102
Primitive shell pairs kept                  ...     13068
          la=0 lb=0:   1680 shell pairs
          la=1 lb=0:   1940 shell pairs
          la=1 lb=1:    612 shell pairs
          la=2 lb=0:    624 shell pairs
          la=2 lb=1:    390 shell pairs
          la=2 lb=2:     69 shell pairs

Calculating one electron integrals          ... done (  0.0 sec)
Calculating Nuclear repulsion               ... done (  0.0 sec) ENN=    624.504271095385 Eh

SHARK setup successfully completed in   0.1 seconds

Maximum memory used throughout the entire GTOINT-calculation: 8.7 MB
[cnode13:350819] 7 more processes have sent help message help-mpi-btl-openib.txt / error in device init
[cnode13:350819] Set MCA parameter "orte_base_help_aggregate" to 0 to see all help / error messages
--------------------------------------------------------------------------
WARNING: There was an error initializing an OpenFabrics device.

  Local host:   cnode13
  Local device: mlx5_0
--------------------------------------------------------------------------


           ************************************************************
           *        Program running with 8 parallel MPI-processes     *
           *              working on a common directory               *
           ************************************************************
-------------------------------------------------------------------------------
                                 ORCA SCF
-------------------------------------------------------------------------------

------------
SCF SETTINGS
------------
Hamiltonian:
 Ab initio Hamiltonian  Method          .... Hartree-Fock(GTOs)


General Settings:
 Integral files         IntName         .... benzeneDimer-CIS
 Hartree-Fock type      HFTyp           .... RHF
 Total Charge           Charge          ....    0
 Multiplicity           Mult            ....    1
 Number of Electrons    NEL             ....   84
 Basis Dimension        Dim             ....  228
 Nuclear Repulsion      ENuc            ....    624.5042710954 Eh

Convergence Acceleration:
 DIIS                   CNVDIIS         .... on
   Start iteration      DIISMaxIt       ....    12
   Startup error        DIISStart       ....  0.200000
   # of expansion vecs  DIISMaxEq       ....     5
   Bias factor          DIISBfac        ....   1.050
   Max. coefficient     DIISMaxC        ....  10.000
 Trust-Rad. Augm. Hess. CNVTRAH         .... auto
   Auto Start mean grad. ratio tolernc. ....  1.125000
   Auto Start start iteration           ....    20
   Auto Start num. interpolation iter.  ....    10
   Max. Number of Micro iterations      ....    16
   Max. Number of Macro iterations      .... Maxiter - #DIIS iter
   Number of Davidson start vectors     ....     2
   Converg. threshold I  (grad. norm)   ....   5.000e-05
   Converg. threshold II (energy diff.) ....   1.000e-06
   Grad. Scal. Fac. for Micro threshold ....   0.100
   Minimum threshold for Micro iter.    ....   0.010
   NR start threshold (gradient norm)   ....   0.001
   Initial trust radius                 ....   0.400
   Minimum AH scaling param. (alpha)    ....   1.000
   Maximum AH scaling param. (alpha)    .... 1000.000
   Orbital update algorithm             .... Taylor
   White noise on init. David. guess    .... on
   Maximum white noise                  ....   0.010
   Quad. conv. algorithm                .... NR
 SOSCF                  CNVSOSCF        .... on
   Start iteration      SOSCFMaxIt      ....   150
   Startup grad/error   SOSCFStart      ....  0.003300
 Level Shifting         CNVShift        .... on
   Level shift para.    LevelShift      ....    0.2500
   Turn off err/grad.   ShiftErr        ....    0.0010
 Zerner damping         CNVZerner       .... off
 Static damping         CNVDamp         .... on
   Fraction old density DampFac         ....    0.7000
   Max. Damping (<1)    DampMax         ....    0.9800
   Min. Damping (>=0)   DampMin         ....    0.0000
   Turn off err/grad.   DampErr         ....    0.1000
 Fernandez-Rico         CNVRico         .... off

SCF Procedure:
 Maximum # iterations   MaxIter         ....   125
 SCF integral mode      SCFMode         .... Direct
   Integral package                     .... SHARK and LIBINT hybrid scheme
 Reset frequency        DirectResetFreq ....    20
 Integral Threshold     Thresh          ....  1.000e-10 Eh
 Primitive CutOff       TCut            ....  1.000e-11 Eh

Convergence Tolerance:
 Convergence Check Mode ConvCheckMode   .... Total+1el-Energy
 Convergence forced     ConvForced      .... 1
 Energy Change          TolE            ....  1.000e-06 Eh
 1-El. energy change                    ....  1.000e-03 Eh
 Orbital Gradient       TolG            ....  5.000e-05
 Orbital Rotation angle TolX            ....  5.000e-05
 DIIS Error             TolErr          ....  1.000e-06


Diagonalization of the overlap matrix:
Smallest eigenvalue                        ... 2.905e-04
Time for diagonalization                   ...    0.006 sec
Threshold for overlap eigenvalues          ... 1.000e-08
Number of eigenvalues below threshold      ... 0
Time for construction of square roots      ...    0.006 sec
Total time needed                          ...    0.013 sec

Time for model grid setup =    0.096 sec

------------------------------
INITIAL GUESS: MODEL POTENTIAL
------------------------------
Loading Hartree-Fock densities                     ... done
Calculating cut-offs                               ... done
Initializing the effective Hamiltonian             ... done
Setting up the integral package (SHARK)            ... done
Starting the Coulomb interaction                   ... done (   0.0 sec)
Reading the grid                                   ... done
Mapping shells                                     ... done
Starting the XC term evaluation                    ... done (   0.0 sec)
Transforming the Hamiltonian                       ... done (   0.0 sec)
Diagonalizing the Hamiltonian                      ... done (   0.0 sec)
Back transforming the eigenvectors                 ... done (   0.0 sec)
Now organizing SCF variables                       ... done
                      ------------------
                      INITIAL GUESS DONE (   0.2 sec)
                      ------------------
--------------
SCF ITERATIONS
--------------
ITER       Energy         Delta-E        Max-DP      RMS-DP      [F,P]     Damp
               ***  Starting incremental Fock matrix formation  ***
  0   -460.6403480681   0.000000000000 0.05290408  0.00269018  0.1523468 0.7000
  1   -460.7855708080  -0.145222739931 0.04416645  0.00216355  0.1014876 0.7000
                               ***Turning on DIIS***
  2   -460.8762284779  -0.090657669866 0.11178170  0.00512760  0.0618613 0.0000
  3   -460.1574447877   0.718783690223 0.01730952  0.00076243  0.0205038 0.0000
  4   -461.0381440106  -0.880699222908 0.00590395  0.00030151  0.0030152 0.0000
[cnode13:350880] 7 more processes have sent help message help-mpi-btl-openib.txt / error in device init
[cnode13:350880] Set MCA parameter "orte_base_help_aggregate" to 0 to see all help / error messages
                      *** Initiating the SOSCF procedure ***
                           *** Shutting down DIIS ***
                      *** Re-Reading the Fockian *** 
                      *** Removing any level shift *** 
ITER      Energy       Delta-E        Grad      Rot      Max-DP    RMS-DP
  5   -461.06222902  -0.0240850052  0.001674  0.001674  0.002330  0.000140
               *** Restarting incremental Fock matrix formation ***
  6   -461.06483191  -0.0026028960  0.000211  0.000454  0.000331  0.000018
  7   -461.06483357  -0.0000016550  0.000127  0.000164  0.000156  0.000007
                 **** Energy Check signals convergence ****
              ***Rediagonalizing the Fockian in SOSCF/NRSCF***

               *****************************************************
               *                     SUCCESS                       *
               *           SCF CONVERGED AFTER   8 CYCLES          *
               *****************************************************


----------------
TOTAL SCF ENERGY
----------------

Total Energy       :         -461.06483419 Eh          -12546.21198 eV

Components:
Nuclear Repulsion  :          624.50427110 Eh           16993.62516 eV
Electronic Energy  :        -1085.56910528 Eh          -29539.83713 eV
One Electron Energy:        -1861.52054055 Eh          -50654.54914 eV
Two Electron Energy:          775.95143527 Eh           21114.71200 eV

Virial components:
Potential Energy   :         -919.45256755 Eh          -25019.57633 eV
Kinetic Energy     :          458.38773336 Eh           12473.36436 eV
Virial Ratio       :            2.00584025


---------------
SCF CONVERGENCE
---------------

  Last Energy change         ...   -6.2097e-07  Tolerance :   1.0000e-06
  Last MAX-Density change    ...    3.3591e-05  Tolerance :   1.0000e-05
  Last RMS-Density change    ...    1.6944e-06  Tolerance :   1.0000e-06
  Last Orbital Gradient      ...    1.5437e-05  Tolerance :   5.0000e-05
  Last Orbital Rotation      ...    4.3621e-05  Tolerance :   5.0000e-05

             **** THE GBW FILE WAS UPDATED (benzeneDimer-CIS.gbw) ****
             **** DENSITY benzeneDimer-CIS.scfp WAS UPDATED ****
             **** ENERGY FILE WAS UPDATED (benzeneDimer-CIS.en.tmp) ****
             **** THE GBW FILE WAS UPDATED (benzeneDimer-CIS.gbw) ****
             **** DENSITY benzeneDimer-CIS.scfp WAS UPDATED ****
----------------
ORBITAL ENERGIES
----------------

  NO   OCC          E(Eh)            E(eV) 
   0   2.0000     -11.236122      -305.7504 
   1   2.0000     -11.236107      -305.7500 
   2   2.0000     -11.235280      -305.7275 
   3   2.0000     -11.235267      -305.7272 
   4   2.0000     -11.234633      -305.7099 
   5   2.0000     -11.234582      -305.7085 
   6   2.0000     -11.234186      -305.6978 
   7   2.0000     -11.234160      -305.6970 
   8   2.0000     -11.233362      -305.6753 
   9   2.0000     -11.233335      -305.6746 
  10   2.0000     -11.232270      -305.6456 
  11   2.0000     -11.232262      -305.6454 
  12   2.0000      -1.134186       -30.8628 
  13   2.0000      -1.130256       -30.7558 
  14   2.0000      -0.998468       -27.1697 
  15   2.0000      -0.996703       -27.1217 
  16   2.0000      -0.996562       -27.1178 
  17   2.0000      -0.995180       -27.0802 
  18   2.0000      -0.810180       -22.0461 
  19   2.0000      -0.810005       -22.0413 
  20   2.0000      -0.809931       -22.0393 
  21   2.0000      -0.809656       -22.0319 
  22   2.0000      -0.702138       -19.1062 
  23   2.0000      -0.700791       -19.0695 
  24   2.0000      -0.631083       -17.1727 
  25   2.0000      -0.630801       -17.1650 
  26   2.0000      -0.616284       -16.7700 
  27   2.0000      -0.615810       -16.7570 
  28   2.0000      -0.583237       -15.8707 
  29   2.0000      -0.582513       -15.8510 
  30   2.0000      -0.582272       -15.8444 
  31   2.0000      -0.581762       -15.8305 
  32   2.0000      -0.511959       -13.9311 
  33   2.0000      -0.490709       -13.3529 
  34   2.0000      -0.490636       -13.3509 
  35   2.0000      -0.490566       -13.3490 
  36   2.0000      -0.490407       -13.3447 
  37   2.0000      -0.480091       -13.0640 
  38   2.0000      -0.345415        -9.3992 
  39   2.0000      -0.330696        -8.9987 
  40   2.0000      -0.330502        -8.9934 
  41   2.0000      -0.318507        -8.6670 
  42   0.0000       0.134080         3.6485 
  43   0.0000       0.137028         3.7287 
  44   0.0000       0.137202         3.7334 
  45   0.0000       0.139285         3.7901 
  46   0.0000       0.172471         4.6932 
  47   0.0000       0.196705         5.3526 
  48   0.0000       0.206225         5.6117 
  49   0.0000       0.214967         5.8495 
  50   0.0000       0.233986         6.3671 
  51   0.0000       0.237944         6.4748 
  52   0.0000       0.254159         6.9160 
  53   0.0000       0.256417         6.9775 
  54   0.0000       0.265992         7.2380 
  55   0.0000       0.272160         7.4058 
  56   0.0000       0.286471         7.7953 
  57   0.0000       0.292025         7.9464 
  58   0.0000       0.348209         9.4753 
  59   0.0000       0.351988         9.5781 
  60   0.0000       0.450391        12.2558 
  61   0.0000       0.455432        12.3929 
  62   0.0000       0.458233        12.4691 
  63   0.0000       0.458782        12.4841 
  64   0.0000       0.463150        12.6029 
  65   0.0000       0.472851        12.8669 
  66   0.0000       0.476619        12.9695 
  67   0.0000       0.480110        13.0645 
  68   0.0000       0.482922        13.1410 
  69   0.0000       0.533757        14.5243 
  70   0.0000       0.543169        14.7804 
  71   0.0000       0.578582        15.7440 
  72   0.0000       0.588495        16.0138 
  73   0.0000       0.599090        16.3021 
  74   0.0000       0.614615        16.7245 
  75   0.0000       0.621621        16.9152 
  76   0.0000       0.630682        17.1617 
  77   0.0000       0.646267        17.5858 
  78   0.0000       0.652567        17.7573 
  79   0.0000       0.667242        18.1566 
  80   0.0000       0.678572        18.4649 
  81   0.0000       0.705474        19.1969 
  82   0.0000       0.715379        19.4665 
  83   0.0000       0.718465        19.5504 
  84   0.0000       0.723369        19.6839 
  85   0.0000       0.742284        20.1986 
  86   0.0000       0.744969        20.2716 
  87   0.0000       0.746719        20.3192 
  88   0.0000       0.750020        20.4091 
  89   0.0000       0.801943        21.8220 
  90   0.0000       0.804637        21.8953 
  91   0.0000       0.854070        23.2404 
  92   0.0000       0.865368        23.5479 
  93   0.0000       0.874694        23.8016 
  94   0.0000       0.876059        23.8388 
  95   0.0000       0.880528        23.9604 
  96   0.0000       0.891093        24.2479 
  97   0.0000       0.891948        24.2711 
  98   0.0000       0.895492        24.3676 
  99   0.0000       0.898446        24.4480 
 100   0.0000       0.899160        24.4674 
 101   0.0000       0.907696        24.6997 
 102   0.0000       0.941275        25.6134 
 103   0.0000       0.948460        25.8089 
 104   0.0000       0.961262        26.1573 
 105   0.0000       0.967464        26.3260 
 106   0.0000       0.970651        26.4128 
 107   0.0000       0.978468        26.6255 
 108   0.0000       0.983937        26.7743 
 109   0.0000       0.988572        26.9004 
 110   0.0000       1.011355        27.5204 
 111   0.0000       1.013942        27.5908 
 112   0.0000       1.014905        27.6170 
 113   0.0000       1.036748        28.2114 
 114   0.0000       1.042858        28.3776 
 115   0.0000       1.047708        28.5096 
 116   0.0000       1.059760        28.8375 
 117   0.0000       1.101084        29.9620 
 118   0.0000       1.126146        30.6440 
 119   0.0000       1.131937        30.8016 
 120   0.0000       1.173748        31.9393 
 121   0.0000       1.182328        32.1728 
 122   0.0000       1.228727        33.4354 
 123   0.0000       1.282187        34.8901 
 124   0.0000       1.293043        35.1855 
 125   0.0000       1.307607        35.5818 
 126   0.0000       1.413083        38.4520 
 127   0.0000       1.416866        38.5549 
 128   0.0000       1.460164        39.7331 
 129   0.0000       1.497930        40.7607 
 130   0.0000       1.500666        40.8352 
 131   0.0000       1.506825        41.0028 
 132   0.0000       1.515206        41.2309 
 133   0.0000       1.516747        41.2728 
 134   0.0000       1.519231        41.3404 
 135   0.0000       1.537986        41.8507 
 136   0.0000       1.542051        41.9613 
 137   0.0000       1.542545        41.9748 
 138   0.0000       1.570004        42.7220 
 139   0.0000       1.570604        42.7383 
 140   0.0000       1.586414        43.1685 
 141   0.0000       1.626574        44.2613 
 142   0.0000       1.783440        48.5299 
 143   0.0000       1.790750        48.7288 
 144   0.0000       1.916529        52.1514 
 145   0.0000       1.927502        52.4500 
 146   0.0000       1.941174        52.8220 
 147   0.0000       1.942542        52.8592 
 148   0.0000       1.944627        52.9160 
 149   0.0000       1.956737        53.2455 
 150   0.0000       2.021771        55.0152 
 151   0.0000       2.029650        55.2296 
 152   0.0000       2.030450        55.2514 
 153   0.0000       2.036869        55.4260 
 154   0.0000       2.044812        55.6422 
 155   0.0000       2.047610        55.7183 
 156   0.0000       2.050313        55.7919 
 157   0.0000       2.056738        55.9667 
 158   0.0000       2.062424        56.1214 
 159   0.0000       2.064112        56.1673 
 160   0.0000       2.064678        56.1827 
 161   0.0000       2.079575        56.5881 
 162   0.0000       2.083375        56.6915 
 163   0.0000       2.089507        56.8584 
 164   0.0000       2.107415        57.3457 
 165   0.0000       2.112151        57.4746 
 166   0.0000       2.124107        57.7999 
 167   0.0000       2.133135        58.0455 
 168   0.0000       2.226240        60.5791 
 169   0.0000       2.245146        61.0935 
 170   0.0000       2.280321        62.0507 
 171   0.0000       2.282233        62.1027 
 172   0.0000       2.282919        62.1214 
 173   0.0000       2.285079        62.1802 
 174   0.0000       2.286237        62.2117 
 175   0.0000       2.290519        62.3282 
 176   0.0000       2.300818        62.6084 
 177   0.0000       2.302106        62.6435 
 178   0.0000       2.309370        62.8412 
 179   0.0000       2.323721        63.2317 
 180   0.0000       2.382950        64.8434 
 181   0.0000       2.408960        65.5511 
 182   0.0000       2.463529        67.0360 
 183   0.0000       2.465416        67.0874 
 184   0.0000       2.472355        67.2762 
 185   0.0000       2.495486        67.9056 
 186   0.0000       2.503650        68.1278 
 187   0.0000       2.545443        69.2650 
 188   0.0000       2.631895        71.6175 
 189   0.0000       2.633182        71.6525 
 190   0.0000       2.635450        71.7142 
 191   0.0000       2.653242        72.1984 
 192   0.0000       2.655318        72.2549 
 193   0.0000       2.655580        72.2620 
 194   0.0000       2.658598        72.3441 
 195   0.0000       2.660672        72.4006 
 196   0.0000       2.673502        72.7497 
 197   0.0000       2.674051        72.7646 
 198   0.0000       2.677239        72.8514 
 199   0.0000       2.678145        72.8760 
 200   0.0000       2.892799        78.7171 
 201   0.0000       2.893590        78.7386 
 202   0.0000       2.943200        80.0885 
 203   0.0000       2.958884        80.5153 
 204   0.0000       2.960819        80.5680 
 205   0.0000       2.973834        80.9221 
 206   0.0000       2.990743        81.3823 
 207   0.0000       2.990795        81.3837 
 208   0.0000       3.077796        83.7511 
 209   0.0000       3.078602        83.7730 
 210   0.0000       3.080342        83.8204 
 211   0.0000       3.086833        83.9970 
 212   0.0000       3.088837        84.0515 
 213   0.0000       3.089785        84.0773 
 214   0.0000       3.228277        87.8459 
 215   0.0000       3.228975        87.8649 
 216   0.0000       3.229626        87.8826 
 217   0.0000       3.231079        87.9221 
 218   0.0000       3.246194        88.3334 
 219   0.0000       3.265080        88.8473 
 220   0.0000       3.493443        95.0614 
 221   0.0000       3.494903        95.1012 
 222   0.0000       3.495943        95.1295 
 223   0.0000       3.497414        95.1695 
 224   0.0000       3.625587        98.6572 
 225   0.0000       3.626926        98.6937 
 226   0.0000       4.049381       110.1893 
 227   0.0000       4.050734       110.2261 

                    ********************************
                    * MULLIKEN POPULATION ANALYSIS *
                    ********************************

-----------------------
MULLIKEN ATOMIC CHARGES
-----------------------
   0 C :   -0.046875
   1 C :   -0.051102
   2 C :   -0.021706
   3 C :   -0.024070
   4 C :   -0.043000
   5 C :   -0.049241
   6 H :    0.039763
   7 H :    0.038377
   8 H :    0.039430
   9 H :    0.040772
  10 H :    0.038102
  11 H :    0.039554
  12 C :   -0.024042
  13 C :   -0.043086
  14 C :   -0.049193
  15 C :   -0.046948
  16 C :   -0.050982
  17 C :   -0.021714
  18 H :    0.040742
  19 H :    0.038098
  20 H :    0.039553
  21 H :    0.039760
  22 H :    0.038362
  23 H :    0.039446
Sum of atomic charges:   -0.0000000

--------------------------------
MULLIKEN REDUCED ORBITAL CHARGES
--------------------------------
  0 C s       :     3.133596  s :     3.133596
      pz      :     0.962290  p :     2.869713
      px      :     0.949177
      py      :     0.958246
      dz2     :     0.005527  d :     0.043566
      dxz     :     0.010543
      dyz     :     0.005635
      dx2y2   :     0.010805
      dxy     :     0.011056
  1 C s       :     3.136612  s :     3.136612
      pz      :     0.975908  p :     2.870926
      px      :     0.929735
      py      :     0.965283
      dz2     :     0.007881  d :     0.043564
      dxz     :     0.008502
      dyz     :     0.007263
      dx2y2   :     0.010495
      dxy     :     0.009423
  2 C s       :     3.122490  s :     3.122490
      pz      :     0.959338  p :     2.855548
      px      :     0.944941
      py      :     0.951269
      dz2     :     0.006558  d :     0.043668
      dxz     :     0.009905
      dyz     :     0.006403
      dx2y2   :     0.010355
      dxy     :     0.010446
  3 C s       :     3.125287  s :     3.125287
      pz      :     0.957511  p :     2.855165
      px      :     0.950880
      py      :     0.946774
      dz2     :     0.005721  d :     0.043618
      dxz     :     0.010551
      dyz     :     0.005690
      dx2y2   :     0.010671
      dxy     :     0.010984
  4 C s       :     3.133035  s :     3.133035
      pz      :     0.971485  p :     2.866342
      px      :     0.931050
      py      :     0.963807
      dz2     :     0.007907  d :     0.043622
      dxz     :     0.008532
      dyz     :     0.007286
      dx2y2   :     0.010603
      dxy     :     0.009293
  5 C s       :     3.134049  s :     3.134049
      pz      :     0.968389  p :     2.871660
      px      :     0.938561
      py      :     0.964710
      dz2     :     0.006513  d :     0.043531
      dxz     :     0.009812
      dyz     :     0.006289
      dx2y2   :     0.010341
      dxy     :     0.010576
  6 H s       :     0.935004  s :     0.935004
      pz      :     0.010303  p :     0.025232
      px      :     0.003337
      py      :     0.011593
  7 H s       :     0.936408  s :     0.936408
      pz      :     0.003665  p :     0.025215
      px      :     0.017550
      py      :     0.004000
  8 H s       :     0.935271  s :     0.935271
      pz      :     0.007595  p :     0.025300
      px      :     0.010829
      py      :     0.006876
  9 H s       :     0.933873  s :     0.933873
      pz      :     0.010821  p :     0.025356
      px      :     0.003328
      py      :     0.011206
 10 H s       :     0.936693  s :     0.936693
      pz      :     0.003696  p :     0.025205
      px      :     0.017550
      py      :     0.003959
 11 H s       :     0.935212  s :     0.935212
      pz      :     0.007290  p :     0.025234
      px      :     0.010858
      py      :     0.007086
 12 C s       :     3.125220  s :     3.125220
      pz      :     0.957510  p :     2.855203
      px      :     0.950910
      py      :     0.946783
      dz2     :     0.005731  d :     0.043619
      dxz     :     0.010556
      dyz     :     0.005694
      dx2y2   :     0.010660
      dxy     :     0.010978
 13 C s       :     3.133041  s :     3.133041
      pz      :     0.971584  p :     2.866424
      px      :     0.930955
      py      :     0.963885
      dz2     :     0.007921  d :     0.043621
      dxz     :     0.008530
      dyz     :     0.007293
      dx2y2   :     0.010601
      dxy     :     0.009276
 14 C s       :     3.134028  s :     3.134028
      pz      :     0.968323  p :     2.871632
      px      :     0.938645
      py      :     0.964664
      dz2     :     0.006506  d :     0.043532
      dxz     :     0.009830
      dyz     :     0.006281
      dx2y2   :     0.010337
      dxy     :     0.010578
 15 C s       :     3.133612  s :     3.133612
      pz      :     0.962285  p :     2.869771
      px      :     0.949127
      py      :     0.958359
      dz2     :     0.005538  d :     0.043565
      dxz     :     0.010547
      dyz     :     0.005637
      dx2y2   :     0.010793
      dxy     :     0.011050
 16 C s       :     3.136572  s :     3.136572
      pz      :     0.975838  p :     2.870845
      px      :     0.929685
      py      :     0.965322
      dz2     :     0.007895  d :     0.043565
      dxz     :     0.008501
      dyz     :     0.007270
      dx2y2   :     0.010494
      dxy     :     0.009405
 17 C s       :     3.122522  s :     3.122522
      pz      :     0.959207  p :     2.855524
      px      :     0.945068
      py      :     0.951249
      dz2     :     0.006552  d :     0.043668
      dxz     :     0.009921
      dyz     :     0.006395
      dx2y2   :     0.010350
      dxy     :     0.010450
 18 H s       :     0.933902  s :     0.933902
      pz      :     0.010809  p :     0.025355
      px      :     0.003364
      py      :     0.011182
 19 H s       :     0.936696  s :     0.936696
      pz      :     0.003678  p :     0.025205
      px      :     0.017589
      py      :     0.003938
 20 H s       :     0.935213  s :     0.935213
      pz      :     0.007331  p :     0.025234
      px      :     0.010783
      py      :     0.007120
 21 H s       :     0.935008  s :     0.935008
      pz      :     0.010294  p :     0.025232
      px      :     0.003373
      py      :     0.011566
 22 H s       :     0.936423  s :     0.936423
      pz      :     0.003648  p :     0.025215
      px      :     0.017589
      py      :     0.003977
 23 H s       :     0.935254  s :     0.935254
      pz      :     0.007640  p :     0.025301
      px      :     0.010753
      py      :     0.006908


                     *******************************
                     * LOEWDIN POPULATION ANALYSIS *
                     *******************************

----------------------
LOEWDIN ATOMIC CHARGES
----------------------
   0 C :   -0.031377
   1 C :   -0.028363
   2 C :   -0.017066
   3 C :   -0.016539
   4 C :   -0.024799
   5 C :   -0.032176
   6 H :    0.024978
   7 H :    0.024540
   8 H :    0.025418
   9 H :    0.025995
  10 H :    0.024547
  11 H :    0.024867
  12 C :   -0.016544
  13 C :   -0.024869
  14 C :   -0.032179
  15 C :   -0.031386
  16 C :   -0.028326
  17 C :   -0.017043
  18 H :    0.025978
  19 H :    0.024544
  20 H :    0.024870
  21 H :    0.024974
  22 H :    0.024536
  23 H :    0.025421

-------------------------------
LOEWDIN REDUCED ORBITAL CHARGES
-------------------------------
  0 C s       :     2.856030  s :     2.856030
      pz      :     1.003855  p :     3.077815
      px      :     1.064796
      py      :     1.009165
      dz2     :     0.011060  d :     0.097532
      dxz     :     0.023571
      dyz     :     0.012439
      dx2y2   :     0.025461
      dxy     :     0.025000
  1 C s       :     2.855909  s :     2.855909
      pz      :     1.013853  p :     3.074967
      px      :     1.040527
      py      :     1.020587
      dz2     :     0.016464  d :     0.097488
      dxz     :     0.018846
      dyz     :     0.016222
      dx2y2   :     0.024569
      dxy     :     0.021386
  2 C s       :     2.855493  s :     2.855493
      pz      :     1.001049  p :     3.064003
      px      :     1.053775
      py      :     1.009178
      dz2     :     0.013189  d :     0.097570
      dxz     :     0.022748
      dyz     :     0.013814
      dx2y2   :     0.023561
      dxy     :     0.024259
  3 C s       :     2.855190  s :     2.855190
      pz      :     0.996691  p :     3.063855
      px      :     1.064408
      py      :     1.002756
      dz2     :     0.011510  d :     0.097494
      dxz     :     0.023598
      dyz     :     0.012492
      dx2y2   :     0.025078
      dxy     :     0.024816
  4 C s       :     2.855968  s :     2.855968
      pz      :     1.011763  p :     3.071276
      px      :     1.041406
      py      :     1.018107
      dz2     :     0.016487  d :     0.097554
      dxz     :     0.018930
      dyz     :     0.016283
      dx2y2   :     0.024818
      dxy     :     0.021036
  5 C s       :     2.855914  s :     2.855914
      pz      :     1.009815  p :     3.078768
      px      :     1.051710
      py      :     1.017243
      dz2     :     0.013109  d :     0.097494
      dxz     :     0.022504
      dyz     :     0.013663
      dx2y2   :     0.023545
      dxy     :     0.024673
  6 H s       :     0.907459  s :     0.907459
      pz      :     0.026392  p :     0.067563
      px      :     0.012143
      py      :     0.029029
  7 H s       :     0.907881  s :     0.907881
      pz      :     0.013046  p :     0.067579
      px      :     0.040898
      py      :     0.013635
  8 H s       :     0.906879  s :     0.906879
      pz      :     0.020768  p :     0.067704
      px      :     0.027384
      py      :     0.019551
  9 H s       :     0.906180  s :     0.906180
      pz      :     0.027253  p :     0.067825
      px      :     0.012091
      py      :     0.028482
 10 H s       :     0.907891  s :     0.907891
      pz      :     0.013094  p :     0.067562
      px      :     0.040912
      py      :     0.013556
 11 H s       :     0.907561  s :     0.907561
      pz      :     0.020316  p :     0.067573
      px      :     0.027365
      py      :     0.019892
 12 C s       :     2.855194  s :     2.855194
      pz      :     0.996775  p :     3.063854
      px      :     1.064368
      py      :     1.002711
      dz2     :     0.011531  d :     0.097496
      dxz     :     0.023619
      dyz     :     0.012496
      dx2y2   :     0.025044
      dxy     :     0.024806
 13 C s       :     2.855963  s :     2.855963
      pz      :     1.011906  p :     3.071351
      px      :     1.041324
      py      :     1.018121
      dz2     :     0.016523  d :     0.097554
      dxz     :     0.018921
      dyz     :     0.016303
      dx2y2   :     0.024819
      dxy     :     0.020988
 14 C s       :     2.855912  s :     2.855912
      pz      :     1.009815  p :     3.078772
      px      :     1.051838
      py      :     1.017119
      dz2     :     0.013095  d :     0.097496
      dxz     :     0.022549
      dyz     :     0.013644
      dx2y2   :     0.023533
      dxy     :     0.024675
 15 C s       :     2.856029  s :     2.856029
      pz      :     1.003950  p :     3.077826
      px      :     1.064725
      py      :     1.009151
      dz2     :     0.011086  d :     0.097531
      dxz     :     0.023588
      dyz     :     0.012443
      dx2y2   :     0.025423
      dxy     :     0.024991
 16 C s       :     2.855909  s :     2.855909
      pz      :     1.013931  p :     3.074929
      px      :     1.040461
      py      :     1.020537
      dz2     :     0.016500  d :     0.097488
      dxz     :     0.018839
      dyz     :     0.016243
      dx2y2   :     0.024573
      dxy     :     0.021333
 17 C s       :     2.855487  s :     2.855487
      pz      :     1.001042  p :     3.063986
      px      :     1.053893
      py      :     1.009051
      dz2     :     0.013176  d :     0.097570
      dxz     :     0.022789
      dyz     :     0.013794
      dx2y2   :     0.023547
      dxy     :     0.024264
 18 H s       :     0.906198  s :     0.906198
      pz      :     0.027228  p :     0.067824
      px      :     0.012163
      py      :     0.028433
 19 H s       :     0.907895  s :     0.907895
      pz      :     0.013059  p :     0.067562
      px      :     0.040991
      py      :     0.013512
 20 H s       :     0.907558  s :     0.907558
      pz      :     0.020399  p :     0.067572
      px      :     0.027213
      py      :     0.019960
 21 H s       :     0.907462  s :     0.907462
      pz      :     0.026372  p :     0.067563
      px      :     0.012216
      py      :     0.028976
 22 H s       :     0.907887  s :     0.907887
      pz      :     0.013010  p :     0.067577
      px      :     0.040978
      py      :     0.013589
 23 H s       :     0.906873  s :     0.906873
      pz      :     0.020856  p :     0.067706
      px      :     0.027230
      py      :     0.019620


                      *****************************
                      * MAYER POPULATION ANALYSIS *
                      *****************************

  NA   - Mulliken gross atomic population
  ZA   - Total nuclear charge
  QA   - Mulliken gross atomic charge
  VA   - Mayer's total valence
  BVA  - Mayer's bonded valence
  FA   - Mayer's free valence

  ATOM       NA         ZA         QA         VA         BVA        FA
  0 C      6.0469     6.0000    -0.0469     3.8722     3.8722     0.0000
  1 C      6.0511     6.0000    -0.0511     3.8782     3.8782     0.0000
  2 C      6.0217     6.0000    -0.0217     3.8719     3.8719    -0.0000
  3 C      6.0241     6.0000    -0.0241     3.8766     3.8766    -0.0000
  4 C      6.0430     6.0000    -0.0430     3.8752     3.8752     0.0000
  5 C      6.0492     6.0000    -0.0492     3.8739     3.8739     0.0000
  6 H      0.9602     1.0000     0.0398     0.9851     0.9851    -0.0000
  7 H      0.9616     1.0000     0.0384     0.9856     0.9856     0.0000
  8 H      0.9606     1.0000     0.0394     0.9895     0.9895    -0.0000
  9 H      0.9592     1.0000     0.0408     0.9900     0.9900    -0.0000
 10 H      0.9619     1.0000     0.0381     0.9862     0.9862     0.0000
 11 H      0.9604     1.0000     0.0396     0.9851     0.9851     0.0000
 12 C      6.0240     6.0000    -0.0240     3.8766     3.8766    -0.0000
 13 C      6.0431     6.0000    -0.0431     3.8752     3.8752     0.0000
 14 C      6.0492     6.0000    -0.0492     3.8739     3.8739     0.0000
 15 C      6.0469     6.0000    -0.0469     3.8722     3.8722     0.0000
 16 C      6.0510     6.0000    -0.0510     3.8781     3.8781    -0.0000
 17 C      6.0217     6.0000    -0.0217     3.8719     3.8719    -0.0000
 18 H      0.9593     1.0000     0.0407     0.9900     0.9900    -0.0000
 19 H      0.9619     1.0000     0.0381     0.9861     0.9861     0.0000
 20 H      0.9604     1.0000     0.0396     0.9851     0.9851    -0.0000
 21 H      0.9602     1.0000     0.0398     0.9851     0.9851    -0.0000
 22 H      0.9616     1.0000     0.0384     0.9856     0.9856    -0.0000
 23 H      0.9606     1.0000     0.0394     0.9895     0.9895    -0.0000

  Mayer bond orders larger than 0.100000
B(  0-C ,  1-C ) :   1.4186 B(  0-C ,  5-C ) :   1.4104 B(  0-C ,  6-H ) :   0.9998 
B(  1-C ,  2-C ) :   1.4095 B(  1-C ,  7-H ) :   0.9999 B(  2-C ,  3-C ) :   1.4258 
B(  2-C ,  8-H ) :   0.9985 B(  3-C ,  4-C ) :   1.4109 B(  3-C ,  9-H ) :   0.9980 
B(  4-C ,  5-C ) :   1.4180 B(  4-C , 10-H ) :   0.9999 B(  5-C , 11-H ) :   0.9998 
B( 12-C , 13-C ) :   1.4108 B( 12-C , 17-C ) :   1.4258 B( 12-C , 18-H ) :   0.9980 
B( 13-C , 14-C ) :   1.4181 B( 13-C , 19-H ) :   0.9999 B( 14-C , 15-C ) :   1.4104 
B( 14-C , 20-H ) :   0.9998 B( 15-C , 16-C ) :   1.4186 B( 15-C , 21-H ) :   0.9998 
B( 16-C , 17-C ) :   1.4095 B( 16-C , 22-H ) :   0.9999 B( 17-C , 23-H ) :   0.9985 


-------
TIMINGS
-------

Total SCF time: 0 days 0 hours 0 min 8 sec 

Total time                  ....       8.042 sec
Sum of individual times     ....       7.827 sec  ( 97.3%)

Fock matrix formation       ....       7.521 sec  ( 93.5%)
Diagonalization             ....       0.052 sec  (  0.6%)
Density matrix formation    ....       0.004 sec  (  0.0%)
Population analysis         ....       0.013 sec  (  0.2%)
Initial guess               ....       0.083 sec  (  1.0%)
Orbital Transformation      ....       0.000 sec  (  0.0%)
Orbital Orthonormalization  ....       0.000 sec  (  0.0%)
DIIS solution               ....       0.036 sec  (  0.4%)
SOSCF solution              ....       0.022 sec  (  0.3%)

Maximum memory used throughout the entire SCF-calculation: 230.8 MB
--------------------------------------------------------------------------
WARNING: There was an error initializing an OpenFabrics device.

  Local host:   cnode13
  Local device: mlx5_0
--------------------------------------------------------------------------


           ************************************************************
           *        Program running with 8 parallel MPI-processes     *
           *              working on a common directory               *
           ************************************************************
------------------------------------------------------------------------------
                         ORCA CIS CALCULATION
------------------------------------------------------------------------------

Input orbitals are from        ... benzeneDimer-CIS.gbw
CI-vector output               ... benzeneDimer-CIS.cis
Tamm-Dancoff approximation     ... operative
CIS-Integral strategy          ... AO-integrals
Integral handling              ... AO integral Direct
Max. core memory used          ... 512 MB
Reference state                ... RHF
Generation of triplets         ... off
Follow IRoot                   ... off
Number of operators            ... 1
Orbital ranges used for CIS calculation:
 Operator 0:  Orbitals  12... 41  to  42...227
XAS localization array:
 Operator 0:  Orbitals  -1... -1

Entering Solve()
   ... Initialized Buffers
------------------------
DAVIDSON-DIAGONALIZATION
------------------------

Dimension of the eigenvalue problem            ...   5580
Number of roots to be determined               ...     18
Maximum size of the expansion space            ...    180
Maximum number of iterations                   ...    100
Convergence tolerance for the residual         ...    1.000e-06
Convergence tolerance for the energies         ...    1.000e-06
Orthogonality tolerance                        ...    1.000e-14
Level Shift                                    ...    0.000e+00
Constructing the preconditioner                ... o.k.
Building the initial guess                     ... o.k.
Number of trial vectors determined             ...    180


                       ****Iteration    0****

Building the sigma vectors                     ... 
   Memory handling for direct AO based CIS:
   Memory per vector needed      ...     1 MB
   Memory needed                 ...    64 MB
   Memory available              ...   512 MB
   Number of vectors per batch   ...   430
   Number of batches             ...     1
   Time for densities:            0.034
   SHARK[1a]
[cnode13:350948] 7 more processes have sent help message help-mpi-btl-openib.txt / error in device init
[cnode13:350948] Set MCA parameter "orte_base_help_aggregate" to 0 to see all help / error messages
   Time for J+K (Direct):        33.716
   Time for Sigma-Completion:     0.100

--------------------------------------------------
SOLUTION IN THE SPACE OF THE INITIAL TRIAL VECTORS
--------------------------------------------------

Ordering of basis states:
Basis-state  0:  41->42 (op=0)
Basis-state  1:  41->43 (op=0)
Basis-state  2:  41->44 (op=0)
Basis-state  3:  41->45 (op=0)
Basis-state  4:  40->42 (op=0)
Basis-state  5:  39->42 (op=0)
Basis-state  6:  40->43 (op=0)
Basis-state  7:  40->44 (op=0)
Basis-state  8:  39->43 (op=0)
Basis-state  9:  39->44 (op=0)
Basis-state 10:  40->45 (op=0)
Basis-state 11:  39->45 (op=0)
Basis-state 12:  38->42 (op=0)
Basis-state 13:  38->43 (op=0)
Basis-state 14:  38->44 (op=0)
Basis-state 15:  38->45 (op=0)
Basis-state 16:  41->46 (op=0)
Basis-state 17:  40->46 (op=0)
Basis-state 18:  39->46 (op=0)
Basis-state 19:  41->47 (op=0)
Basis-state 20:  38->46 (op=0)
Basis-state 21:  41->48 (op=0)
Basis-state 22:  40->47 (op=0)
Basis-state 23:  39->47 (op=0)
Basis-state 24:  41->49 (op=0)
Basis-state 25:  40->48 (op=0)
Basis-state 26:  39->48 (op=0)
Basis-state 27:  38->47 (op=0)
Basis-state 28:  40->49 (op=0)
Basis-state 29:  39->49 (op=0)
Basis-state 30:  38->48 (op=0)
Basis-state 31:  41->50 (op=0)
Basis-state 32:  41->51 (op=0)
Basis-state 33:  38->49 (op=0)
Basis-state 34:  40->50 (op=0)
Basis-state 35:  39->50 (op=0)
Basis-state 36:  40->51 (op=0)
Basis-state 37:  39->51 (op=0)
Basis-state 38:  41->52 (op=0)
Basis-state 39:  41->53 (op=0)
Basis-state 40:  38->50 (op=0)
Basis-state 41:  38->51 (op=0)
Basis-state 42:  41->54 (op=0)
Basis-state 43:  40->52 (op=0)
Basis-state 44:  39->52 (op=0)
Basis-state 45:  40->53 (op=0)
Basis-state 46:  39->53 (op=0)
Basis-state 47:  41->55 (op=0)
Basis-state 48:  40->54 (op=0)
Basis-state 49:  39->54 (op=0)
Basis-state 50:  38->52 (op=0)
Basis-state 51:  38->53 (op=0)
Basis-state 52:  40->55 (op=0)
Basis-state 53:  39->55 (op=0)

The initial Hamiltonian (eV):
                  0          1          2          3          4          5    
      0       8.211056   0.011403  -0.114778  -0.000884  -0.087679  -0.003263
      1       0.011403   8.472939   0.021287   0.100667   0.031045   0.792866
      2      -0.114778   0.021287   8.253359   0.010523  -0.633265   0.055850
      3      -0.000884   0.100667   0.010523   8.511534   0.008904  -0.205504
      4      -0.087679   0.031045  -0.633265   0.008904   8.442480  -0.004796
      5      -0.003263   0.792866   0.055850  -0.205504  -0.004796   8.618576
      6      -0.037529   0.073617   0.004988  -0.880183   0.008831  -0.198856
      7       0.603822  -0.003172   0.088476  -0.118703   0.058895  -0.022352
      8      -0.602381   0.014849  -0.216704  -0.118083  -0.179645  -0.025710
      9      -0.036429   0.093458  -0.008373   0.840361  -0.021119   0.112393
     10      -0.001469   0.828930   0.106802  -0.074239   0.038075  -0.398405
     11       0.010640   0.092892  -0.625210  -0.003225  -0.592214  -0.036609
     12       0.000484  -0.029576  -0.002105   0.420921  -0.002190   0.063556
     13       0.040747   0.104229  -0.592166  -0.017162  -0.618750  -0.104182
     14       0.005435  -0.458755  -0.105769   0.188339  -0.094014   0.823365
     15       0.638081  -0.017430   0.186381   0.001109   0.235232   0.007132
     16      -0.024618  -0.001436   0.014536   0.000041  -0.026711  -0.000820
     17       0.008055   0.001564   0.006168  -0.001602   0.063610   0.001759
     18       0.000217  -0.050961  -0.004947   0.039069   0.001786   0.010829
     19       0.000040  -0.007741  -0.000744  -0.005608   0.000176  -0.002981
     20       0.000075  -0.025768  -0.002802  -0.049247  -0.000991   0.022680
     21      -0.000013  -0.003510  -0.000281   0.002895  -0.000998   0.028382
     22      -0.000271  -0.011758  -0.001665   0.010242  -0.005754   0.064522
     23       0.007251  -0.001667   0.012250   0.000354   0.086951   0.005689
     24      -0.000147   0.019098   0.001922   0.028977  -0.000075  -0.002296
     25       0.000100  -0.016191  -0.001711  -0.027559  -0.000729   0.010520
     26      -0.002501  -0.000917   0.002384  -0.001206   0.009778   0.000783
     27      -0.055097  -0.002022   0.021616  -0.000049   0.012584   0.000398
     28      -0.000027  -0.020456  -0.002390   0.009589   0.003739  -0.026148
     29       0.000883  -0.002103   0.014098   0.000464  -0.069386  -0.003520
     30      -0.007438   0.000112  -0.002453  -0.000163  -0.035281  -0.001365
     31      -0.031031  -0.001518   0.015618  -0.000079  -0.017948  -0.000635
     32      -0.011181   0.001403  -0.014125  -0.000022  -0.019745  -0.000761
     33       0.002249   0.000251  -0.003326  -0.000163  -0.019085  -0.000540
     34      -0.007005   0.002616  -0.015084  -0.000609   0.050186   0.001957
     35      -0.000282  -0.025294  -0.003183   0.016453   0.002046  -0.003580
     36       0.018327   0.000448  -0.009573  -0.000757  -0.003481   0.000150
     37       0.000820   0.012312   0.000975   0.024163   0.000152  -0.004822
     38       0.011806  -0.000050   0.001258  -0.000099   0.029299   0.000975
     39      -0.000278  -0.002553   0.024708  -0.000163  -0.059331  -0.002229
     40      -0.000002  -0.007491  -0.000802  -0.020125  -0.000128   0.004352
     41      -0.000011  -0.014141  -0.001404   0.007867  -0.000850   0.024532
     42       0.000228  -0.006851  -0.000686   0.008152  -0.000216   0.004232
     43       0.026243  -0.006868   0.085594  -0.000375  -0.040146  -0.002723
     44       0.001177  -0.036397  -0.000669   0.008961  -0.002715   0.026033
     45       0.059040  -0.000080  -0.006170  -0.000838   0.017586   0.000296
     46       0.002653   0.017572   0.001646   0.032619   0.000205   0.015519
     47       0.000074  -0.006850  -0.000628  -0.008803  -0.001064   0.023211
     48       0.000598  -0.005442  -0.000825  -0.002120   0.000383  -0.009213
     49      -0.012272  -0.000986   0.008613  -0.000091  -0.004025  -0.000351
     50       0.000024  -0.029096  -0.002987  -0.084084   0.000218  -0.000458
     51       0.000081  -0.090524  -0.008877   0.046519  -0.000665   0.023247
     52       0.000759   0.034836   0.004193  -0.044303   0.003613  -0.050071
     53      -0.016281   0.004106  -0.028059  -0.001699  -0.042207  -0.003460
                  6          7          8          9         10         11    
      0      -0.037529   0.603822  -0.602381  -0.036429  -0.001469   0.010640
      1       0.073617  -0.003172   0.014849   0.093458   0.828930   0.092892
      2       0.004988   0.088476  -0.216704  -0.008373   0.106802  -0.625210
      3      -0.880183  -0.118703  -0.118083   0.840361  -0.074239  -0.003225
      4       0.008831   0.058895  -0.179645  -0.021119   0.038075  -0.592214
      5      -0.198856  -0.022352  -0.025710   0.112393  -0.398405  -0.036609
      6       8.816921  -0.008412  -0.086475   0.344668  -0.107335   0.001498
      7      -0.008412   8.532081   0.633505   0.086917  -0.010537  -0.047442
      8      -0.086475   0.633505   8.483980   0.007105  -0.010228  -0.036503
      9       0.344668   0.086917   0.007105   8.809932   0.063151  -0.003414
     10      -0.107335  -0.010537  -0.010228   0.063151   8.889895   0.009651
     11       0.001498  -0.047442  -0.036503  -0.003414   0.009651   8.651890
     12       0.854804   0.116592   0.118154  -0.852143  -0.086114  -0.001532
     13      -0.017470   0.010675  -0.140358  -0.008282  -0.055471  -0.643404
     14       0.217841   0.025776   0.001898  -0.065151   0.810436  -0.033163
     15       0.035839  -0.582812   0.617912   0.037871  -0.006037   0.141530
     16       0.005470  -0.075620   0.054214   0.002511   0.001419  -0.029374
     17      -0.001475  -0.023497   0.061792   0.005707  -0.005501   0.092427
     18       0.038716   0.003332   0.004344  -0.004635   0.053128   0.005426
     19       0.022001   0.002676   0.002384  -0.015063  -0.010642  -0.000337
     20      -0.048822  -0.007202  -0.008318   0.063834   0.026462   0.000776
     21       0.020784   0.002573   0.002208  -0.013384   0.023132   0.000884
     22       0.006198   0.003196   0.002597  -0.030617   0.010276  -0.000680
     23       0.003260  -0.037511   0.015606  -0.001016  -0.000647   0.028433
     24      -0.017698  -0.001627  -0.000648   0.000039   0.014220   0.000439
     25       0.003507  -0.001149  -0.001707   0.016622  -0.007616   0.000140
     26      -0.002133   0.020527   0.002686   0.001658   0.000116  -0.010813
     27      -0.002319   0.039834  -0.044305  -0.002786  -0.001065   0.025139
     28       0.002446  -0.001494  -0.001117   0.017412  -0.004063   0.001246
     29      -0.002239   0.029056  -0.010493   0.000677   0.001144  -0.035143
     30      -0.001097   0.019394  -0.025177  -0.001707   0.000924  -0.024341
     31       0.004107  -0.057771   0.043507   0.002155   0.000855  -0.019110
     32      -0.000252   0.006637  -0.011155  -0.000871   0.000603  -0.017670
     33       0.002192  -0.043728   0.053977   0.003619   0.001768  -0.041801
     34      -0.000560  -0.014274   0.036653   0.003125  -0.002857   0.057581
     35       0.015567   0.000895   0.001791   0.002966   0.017559   0.002807
     36       0.001350  -0.019926   0.014658   0.001013  -0.000057   0.001467
     37       0.004386  -0.000007   0.001860  -0.010479   0.002312   0.000209
     38      -0.001121   0.004662   0.013649   0.001540  -0.000902   0.019284
     39      -0.002021   0.039796  -0.055299  -0.004022   0.002633  -0.076421
     40      -0.015756  -0.002421  -0.003033   0.023334   0.002441   0.000097
     41       0.013916   0.001859   0.001635  -0.011188   0.018144   0.000816
     42       0.006574   0.001178   0.000532  -0.005956   0.004589   0.000108
     43      -0.000384  -0.002146  -0.003666   0.000305  -0.003330   0.016286
     44       0.019293   0.002653   0.002583  -0.019847   0.067796   0.003204
     45      -0.009013   0.029348   0.074380   0.007603   0.003256  -0.040357
     46       0.087248   0.008904   0.004607   0.015630  -0.046474  -0.003374
     47      -0.013028  -0.002124  -0.003233   0.024897   0.018975   0.000426
     48      -0.006085   0.000391   0.001530  -0.013276   0.006834  -0.000540
     49       0.001199  -0.008285  -0.010664  -0.001847  -0.000361   0.012503
     50      -0.041140  -0.005485  -0.004276   0.031242   0.011307   0.000587
     51       0.028873   0.003402   0.002664  -0.013699   0.051263   0.002355
     52      -0.007485  -0.003993  -0.003857   0.041229  -0.008936  -0.000553
     53      -0.004209   0.044089  -0.010028   0.002342  -0.000611  -0.003624
                 12         13         14         15         16         17    
      0       0.000484   0.040747   0.005435   0.638081  -0.024618   0.008055
      1      -0.029576   0.104229  -0.458755  -0.017430  -0.001436   0.001564
      2      -0.002105  -0.592166  -0.105769   0.186381   0.014536   0.006168
      3       0.420921  -0.017162   0.188339   0.001109   0.000041  -0.001602
      4      -0.002190  -0.618750  -0.094014   0.235232  -0.026711   0.063610
      5       0.063556  -0.104182   0.823365   0.007132  -0.000820   0.001759
      6       0.854804  -0.017470   0.217841   0.035839   0.005470  -0.001475
      7       0.116592   0.010675   0.025776  -0.582812  -0.075620  -0.023497
      8       0.118154  -0.140358   0.001898   0.617912   0.054214   0.061792
      9      -0.852143  -0.008282  -0.065151   0.037871   0.002511   0.005707
     10      -0.086114  -0.055471   0.810436  -0.006037   0.001419  -0.005501
     11      -0.001532  -0.643404  -0.033163   0.141530  -0.029374   0.092427
     12       9.125950   0.009720  -0.098580  -0.000825   0.000038   0.001159
     13       0.009720   9.031537  -0.011620   0.032440  -0.022646   0.014254
     14      -0.098580  -0.011620   9.142970   0.002632  -0.002447   0.003771
     15      -0.000825   0.032440   0.002632   8.999154  -0.042818  -0.017041
     16       0.000038  -0.022646  -0.002447  -0.042818   9.350881  -0.000878
     17       0.001159   0.014254   0.003771  -0.017041  -0.000878   9.696305
     18      -0.028724   0.006055  -0.057736  -0.000436  -0.000009  -0.000217
     19      -0.071877  -0.002562   0.027210  -0.000087  -0.000372   0.000050
     20      -0.013936  -0.001138   0.011212   0.000059   0.000718  -0.000025
     21      -0.013644   0.002666  -0.027493  -0.000084  -0.000137  -0.002055
     22      -0.015605   0.003064  -0.032587   0.000233   0.000044  -0.071325
     23      -0.000591   0.003935  -0.000852  -0.004335  -0.001536   0.941013
     24       0.018375   0.000502  -0.006113  -0.000064  -0.000138   0.000102
     25       0.022789   0.000920  -0.011658  -0.000493  -0.002059   0.000049
     26       0.000919   0.007337   0.000272   0.016608   0.051686   0.000380
     27       0.000055  -0.011785  -0.001202  -0.014594  -0.976266  -0.001068
     28       0.015401  -0.003448   0.021814   0.000706   0.000084   0.004106
     29       0.000530   0.034374   0.004151  -0.022409  -0.001139  -0.047790
     30       0.000037   0.007590   0.000744  -0.000800   0.004153  -0.002470
     31       0.000006   0.001221   0.000161  -0.001079  -0.212002  -0.006130
     32      -0.000033  -0.014364  -0.001363   0.009573  -0.010848   0.096074
     33      -0.000055   0.019385   0.002021   0.036237  -0.005601   0.001816
     34       0.000409  -0.008199   0.000377   0.002895  -0.005681  -0.082210
     35      -0.011399   0.002518  -0.030627   0.000212  -0.000195   0.005289
     36       0.000720  -0.010146  -0.001298  -0.013723   0.093024  -0.007196
     37      -0.022287  -0.000855   0.004931  -0.000695   0.003542   0.000542
     38       0.000057  -0.032412  -0.003320  -0.086882   0.022265  -0.007266
     39       0.000113  -0.057371  -0.005618   0.032611   0.001884   0.074189
     40      -0.006564  -0.000968   0.009616   0.000004  -0.000613  -0.000126
     41      -0.008637   0.001028  -0.010864  -0.000036  -0.000163   0.001301
     42       0.003580  -0.000723   0.005606  -0.000028  -0.000035   0.002772
     43      -0.000091   0.077409   0.008990  -0.037054  -0.005159   0.214212
     44      -0.001987   0.005532  -0.027679  -0.001429   0.000057  -0.001745
     45       0.001741  -0.014128  -0.002081  -0.041161   0.068371   0.029717
     46      -0.056947  -0.001920   0.014349  -0.001897   0.002981  -0.000278
     47       0.057275   0.005068  -0.053227   0.000594  -0.000188  -0.001283
     48       0.005191   0.000263  -0.005068  -0.000251   0.002648   0.001030
     49       0.000128   0.007806   0.000757   0.004243  -0.061798   0.000671
     50       0.009182  -0.000292   0.003872  -0.000057   0.000028  -0.000794
     51      -0.012141   0.002558  -0.026098  -0.000050   0.000121   0.003638
     52       0.021038  -0.000843   0.020103  -0.001355  -0.001309   0.001568
     53       0.000715  -0.035112  -0.002578   0.036278   0.032075  -0.023332
                 18         19         20         21         22         23    
      0       0.000217   0.000040   0.000075  -0.000013  -0.000271   0.007251
      1      -0.050961  -0.007741  -0.025768  -0.003510  -0.011758  -0.001667
      2      -0.004947  -0.000744  -0.002802  -0.000281  -0.001665   0.012250
      3       0.039069  -0.005608  -0.049247   0.002895   0.010242   0.000354
      4       0.001786   0.000176  -0.000991  -0.000998  -0.005754   0.086951
      5       0.010829  -0.002981   0.022680   0.028382   0.064522   0.005689
      6       0.038716   0.022001  -0.048822   0.020784   0.006198   0.003260
      7       0.003332   0.002676  -0.007202   0.002573   0.003196  -0.037511
      8       0.004344   0.002384  -0.008318   0.002208   0.002597   0.015606
      9      -0.004635  -0.015063   0.063834  -0.013384  -0.030617  -0.001016
     10       0.053128  -0.010642   0.026462   0.023132   0.010276  -0.000647
     11       0.005426  -0.000337   0.000776   0.000884  -0.000680   0.028433
     12      -0.028724  -0.071877  -0.013936  -0.013644  -0.015605  -0.000591
     13       0.006055  -0.002562  -0.001138   0.002666   0.003064   0.003935
     14      -0.057736   0.027210   0.011212  -0.027493  -0.032587  -0.000852
     15      -0.000436  -0.000087   0.000059  -0.000084   0.000233  -0.004335
     16      -0.000009  -0.000372   0.000718  -0.000137   0.000044  -0.001536
     17      -0.000217   0.000050  -0.000025  -0.002055  -0.071325   0.941013
     18       9.690533  -0.001694   0.000654   0.051867   0.946463   0.071432
     19      -0.001694  10.120799  -0.973295  -0.001065  -0.000016  -0.000017
     20       0.000654  -0.973295  10.066226   0.003925  -0.001233  -0.000066
     21       0.051867  -0.001065   0.003925  10.320490   0.055335   0.002059
     22       0.946463  -0.000016  -0.001233   0.055335  10.396698  -0.000970
     23       0.071432  -0.000017  -0.000066   0.002059  -0.000970  10.454964
     24      -0.001242   0.228664  -0.007305   0.000229   0.000448   0.000002
     25       0.000372   0.055361  -0.004668  -0.000007   0.000256  -0.000407
     26       0.000088   0.002057  -0.000162   0.000059  -0.000405  -0.000497
     27      -0.000059  -0.001059   0.000213   0.000441  -0.000013   0.000003
     28      -0.055311   0.000534   0.001512   0.078032   0.155191  -0.004509
     29      -0.003978  -0.000000   0.000041   0.003097  -0.004505   0.283736
     30      -0.000081   0.000443  -0.000098   0.000394  -0.000385   0.009701
     31      -0.000202  -0.000405  -0.000610   0.000041  -0.000119   0.002446
     32       0.003658  -0.000065  -0.000160  -0.000401   0.000922  -0.023600
     33       0.000037  -0.000352  -0.000132  -0.000027  -0.000027   0.000519
     34       0.005306  -0.000118  -0.000104  -0.003201   0.034575  -0.463892
     35      -0.206216   0.002367   0.002885   0.085939  -0.459956  -0.035339
     36       0.000548   0.000992   0.001120  -0.000135   0.001514  -0.022031
     37      -0.014312  -0.025452  -0.032395   0.001216  -0.021884  -0.001817
     38       0.000027  -0.000165   0.000021  -0.000688  -0.000731   0.008512
[...]
    41a ->  42a  :     0.144084 (c= -0.37958345)
    41a ->  44a  :     0.166987 (c= -0.40864076)

STATE  3:  E=   0.232719 au      6.333 eV    51075.9 cm**-1 <S**2> =   0.000000
    38a ->  42a  :     0.121602 (c= -0.34871437)
    38a ->  44a  :     0.072209 (c=  0.26871798)
    39a ->  42a  :     0.094424 (c= -0.30728446)
    39a ->  44a  :     0.137232 (c= -0.37044833)
    40a ->  43a  :     0.095601 (c=  0.30919488)
    40a ->  45a  :     0.122420 (c= -0.34988586)
    41a ->  43a  :     0.176973 (c=  0.42068212)
    41a ->  45a  :     0.131174 (c=  0.36217943)

STATE  4:  E=   0.233047 au      6.342 eV    51148.0 cm**-1 <S**2> =   0.000000
    38a ->  43a  :     0.110263 (c= -0.33205820)
    38a ->  45a  :     0.061318 (c= -0.24762409)
    39a ->  43a  :     0.089205 (c=  0.29867167)
    39a ->  45a  :     0.145900 (c= -0.38196922)
    40a ->  42a  :     0.116898 (c= -0.34190314)
    40a ->  44a  :     0.134006 (c= -0.36606809)
    41a ->  42a  :     0.167787 (c=  0.40961754)
    41a ->  44a  :     0.128731 (c= -0.35879070)

STATE  5:  E=   0.290071 au      7.893 eV    63663.3 cm**-1 <S**2> =   0.000000
    38a ->  43a  :     0.025183 (c= -0.15869305)
    38a ->  45a  :     0.085121 (c= -0.29175425)
    39a ->  43a  :     0.199549 (c= -0.44670857)
    39a ->  45a  :     0.036264 (c=  0.19043205)
    40a ->  42a  :     0.016463 (c=  0.12830941)
    40a ->  44a  :     0.204817 (c=  0.45256688)
    41a ->  42a  :     0.347938 (c=  0.58986296)
    41a ->  44a  :     0.020287 (c= -0.14243306)

STATE  6:  E=   0.294374 au      8.010 eV    64607.7 cm**-1 <S**2> =   0.000000
    38a ->  43a  :     0.071636 (c=  0.26764906)
    39a ->  43a  :     0.038534 (c= -0.19630037)
    39a ->  45a  :     0.148705 (c= -0.38562290)
    40a ->  42a  :     0.247407 (c= -0.49740014)
    40a ->  44a  :     0.013273 (c=  0.11520925)
    41a ->  42a  :     0.028647 (c=  0.16925539)
    41a ->  44a  :     0.372037 (c=  0.60994830)

STATE  7:  E=   0.309670 au      8.427 eV    67964.7 cm**-1 <S**2> =   0.000000
    38a ->  44a  :     0.045868 (c=  0.21416918)
    39a ->  42a  :     0.281743 (c=  0.53079489)
    39a ->  44a  :     0.019792 (c= -0.14068356)
    40a ->  43a  :     0.034922 (c=  0.18687536)
    40a ->  45a  :     0.107635 (c=  0.32807811)
    41a ->  43a  :     0.324226 (c=  0.56940886)
    41a ->  45a  :     0.087424 (c= -0.29567485)

STATE  8:  E=   0.311098 au      8.465 eV    68278.1 cm**-1 <S**2> =   0.000000
    37a ->  48a  :     0.022359 (c=  0.14953010)
    38a ->  47a  :     0.203944 (c=  0.45160196)
    41a ->  46a  :     0.698045 (c=  0.83549083)

STATE  9:  E=   0.315903 au      8.596 eV    69332.6 cm**-1 <S**2> =   0.000000
    38a ->  42a  :     0.016461 (c= -0.12830041)
    38a ->  46a  :     0.072927 (c=  0.27004982)
    39a ->  42a  :     0.019700 (c=  0.14035610)
    39a ->  44a  :     0.158423 (c=  0.39802407)
    40a ->  43a  :     0.141311 (c= -0.37591399)
    40a ->  45a  :     0.039559 (c=  0.19889432)
    41a ->  43a  :     0.087869 (c=  0.29642714)
    41a ->  45a  :     0.303685 (c=  0.55107608)
    41a ->  47a  :     0.061580 (c=  0.24815344)

STATE 10:  E=   0.316362 au      8.609 eV    69433.4 cm**-1 <S**2> =   0.000000
    32a ->  50a  :     0.011668 (c=  0.10802063)
    37a ->  49a  :     0.017891 (c=  0.13375787)
    39a ->  47a  :     0.317105 (c=  0.56312091)
    39a ->  49a  :     0.013691 (c= -0.11701047)
    40a ->  42a  :     0.010211 (c= -0.10105129)
    40a ->  46a  :     0.566793 (c= -0.75285665)

STATE 11:  E=   0.316407 au      8.610 eV    69443.2 cm**-1 <S**2> =   0.000000
    32a ->  49a  :     0.015134 (c=  0.12301945)
    37a ->  50a  :     0.015220 (c=  0.12336951)
    39a ->  46a  :     0.553714 (c= -0.74411937)
    40a ->  43a  :     0.015063 (c=  0.12273118)
    40a ->  47a  :     0.315524 (c=  0.56171565)
    41a ->  45a  :     0.012057 (c= -0.10980482)

STATE 12:  E=   0.318452 au      8.666 eV    69892.1 cm**-1 <S**2> =   0.000000
    32a ->  48a  :     0.015099 (c=  0.12287967)
    37a ->  51a  :     0.011974 (c= -0.10942500)
    38a ->  42a  :     0.036779 (c= -0.19177742)
    38a ->  46a  :     0.371193 (c= -0.60925633)
    39a ->  44a  :     0.054262 (c=  0.23294140)
    40a ->  43a  :     0.020294 (c= -0.14245758)
    41a ->  45a  :     0.032506 (c=  0.18029434)
    41a ->  47a  :     0.373355 (c= -0.61102798)

STATE 13:  E=   0.331551 au      9.022 eV    72767.1 cm**-1 <S**2> =   0.000000
    37a ->  44a  :     0.011203 (c= -0.10584586)
    39a ->  42a  :     0.156945 (c=  0.39616316)
    39a ->  44a  :     0.276164 (c=  0.52551322)
    40a ->  43a  :     0.196331 (c=  0.44309248)
    40a ->  45a  :     0.317025 (c= -0.56305017)

STATE 14:  E=   0.332432 au      9.046 eV    72960.4 cm**-1 <S**2> =   0.000000
    39a ->  43a  :     0.145769 (c= -0.38179747)
    39a ->  45a  :     0.349542 (c=  0.59122060)
    40a ->  42a  :     0.212011 (c= -0.46044599)
    40a ->  44a  :     0.244599 (c= -0.49456917)

STATE 15:  E=   0.333489 au      9.075 eV    73192.3 cm**-1 <S**2> =   0.000000
    37a ->  42a  :     0.011179 (c=  0.10573131)
    38a ->  51a  :     0.010477 (c=  0.10235634)
    39a ->  42a  :     0.194101 (c= -0.44056931)
    39a ->  44a  :     0.167401 (c=  0.40914714)
    39a ->  50a  :     0.012810 (c= -0.11318206)
    40a ->  43a  :     0.273562 (c=  0.52303117)
    40a ->  45a  :     0.209250 (c=  0.45743803)
    40a ->  47a  :     0.011250 (c= -0.10606483)
    40a ->  49a  :     0.016119 (c= -0.12696226)
    41a ->  48a  :     0.040137 (c=  0.20034211)

STATE 16:  E=   0.333720 au      9.081 eV    73243.1 cm**-1 <S**2> =   0.000000
    39a ->  43a  :     0.302218 (c= -0.54974319)
    39a ->  44a  :     0.011746 (c= -0.10837974)
    39a ->  45a  :     0.167236 (c= -0.40894502)
    40a ->  42a  :     0.210068 (c=  0.45833194)
    40a ->  44a  :     0.241361 (c= -0.49128523)

STATE 17:  E=   0.336838 au      9.166 eV    73927.4 cm**-1 <S**2> =   0.000000
    32a ->  47a  :     0.028171 (c=  0.16784337)
    37a ->  46a  :     0.061726 (c= -0.24844660)
    38a ->  51a  :     0.088520 (c= -0.29752276)
    38a ->  53a  :     0.023921 (c=  0.15466348)
    39a ->  42a  :     0.038754 (c= -0.19686039)
    39a ->  44a  :     0.019440 (c=  0.13942673)
    39a ->  50a  :     0.084905 (c=  0.29138538)
    39a ->  52a  :     0.010371 (c= -0.10183851)
    40a ->  43a  :     0.020840 (c=  0.14435998)
    40a ->  45a  :     0.028172 (c=  0.16784450)
    40a ->  47a  :     0.016667 (c=  0.12909963)
    40a ->  49a  :     0.124575 (c=  0.35295155)
    41a ->  48a  :     0.381227 (c= -0.61743620)

STATE 18:  E=   0.339739 au      9.245 eV    74564.2 cm**-1 <S**2> =   0.000000
    32a ->  46a  :     0.021625 (c=  0.14705603)
    33a ->  43a  :     0.010448 (c= -0.10221362)
    36a ->  44a  :     0.011946 (c= -0.10929576)
    37a ->  47a  :     0.020642 (c= -0.14367221)
    38a ->  43a  :     0.214009 (c=  0.46261156)
    38a ->  45a  :     0.175766 (c= -0.41924487)
    38a ->  48a  :     0.078396 (c= -0.27999223)
    39a ->  43a  :     0.012961 (c= -0.11384851)
    39a ->  45a  :     0.017939 (c= -0.13393518)
    39a ->  49a  :     0.114319 (c= -0.33811098)
    40a ->  50a  :     0.056486 (c= -0.23766778)
    41a ->  42a  :     0.036406 (c= -0.19080364)
    41a ->  44a  :     0.098612 (c= -0.31402602)
    41a ->  51a  :     0.049360 (c= -0.22217003)
    41a ->  53a  :     0.019682 (c=  0.14029154)


----------------------
CIS-EXCITATION SPECTRA
----------------------

Center of mass = (  0.0000,  0.0000,  0.0000)
Calculating the Dipole integrals                  ... done
Transforming integrals                            ... done
Calculating the Linear Momentum integrals         ... done
Transforming integrals                            ... done
Calculating angular momentum integrals            ... done
Transforming integrals                            ... done

-----------------------------------------------------------------------------
         ABSORPTION SPECTRUM VIA TRANSITION ELECTRIC DIPOLE MOMENTS
-----------------------------------------------------------------------------
State   Energy    Wavelength  fosc         T2        TX        TY        TZ  
        (cm-1)      (nm)                 (au**2)    (au)      (au)      (au) 
-----------------------------------------------------------------------------
   1   49736.2    201.1   0.000122030   0.00081   0.00509  -0.00982  -0.02618
   2   49779.3    200.9   0.000000016   0.00000  -0.00007  -0.00012  -0.00029
   3   51075.9    195.8   0.000891914   0.00575   0.06401  -0.01613   0.03729
   4   51148.0    195.5   0.000000038   0.00000  -0.00042  -0.00015   0.00020
   5   63663.3    157.1   0.000000055   0.00000   0.00030   0.00021   0.00038
   6   64607.7    154.8   0.000000495   0.00000   0.00040   0.00097   0.00119
   7   67964.7    147.1   1.883409147   9.12298  -0.33538  -1.98987   2.24742
   8   68278.1    146.5   0.000001848   0.00001  -0.00188  -0.00142   0.00183
   9   69332.6    144.2   1.463140418   6.94743   2.61195  -0.32602   0.13736
  10   69433.4    144.0   0.000047400   0.00022  -0.01080  -0.00684   0.00782
  11   69443.2    144.0   0.083454260   0.39563  -0.37686  -0.33613   0.37500
  12   69892.1    143.1   0.337350034   1.58902   1.25268  -0.13448   0.04145
  13   72767.1    137.4   0.020350813   0.09207  -0.05978   0.09244  -0.28276
  14   72960.4    137.1   0.000015339   0.00007   0.00142  -0.00242   0.00783
  15   73192.3    136.6   0.075374680   0.33903  -0.02195  -0.06930   0.57771
  16   73243.1    136.5   0.000432645   0.00194   0.00268   0.00437  -0.04380
  17   73927.4    135.3   0.014552186   0.06480   0.08171  -0.10823  -0.21544
  18   74564.2    134.1   0.000005261   0.00002   0.00107   0.00469  -0.00032

-----------------------------------------------------------------------------
         ABSORPTION SPECTRUM VIA TRANSITION VELOCITY DIPOLE MOMENTS
-----------------------------------------------------------------------------
State   Energy    Wavelength   fosc        P2         PX        PY        PZ  
        (cm-1)      (nm)                 (au**2)     (au)      (au)      (au) 
-----------------------------------------------------------------------------
   1   49736.2    201.1   0.000064447   0.00002  -0.00102   0.00035   0.00455
   2   49779.3    200.9   0.000000013   0.00000  -0.00001   0.00000   0.00007
   3   51075.9    195.8   0.000078360   0.00003  -0.00224   0.00009  -0.00472
   4   51148.0    195.5   0.000000002   0.00000   0.00003  -0.00000   0.00000
   5   63663.3    157.1   0.000000014   0.00000   0.00001  -0.00003  -0.00007
   6   64607.7    154.8   0.000000147   0.00000  -0.00001  -0.00010  -0.00023
   7   67964.7    147.1   0.115405847   0.05361   0.02144   0.07042  -0.21952
   8   68278.1    146.5   0.000000118   0.00000   0.00010   0.00004  -0.00021
   9   69332.6    144.2   0.043720285   0.02072  -0.14275   0.01825  -0.00221
  10   69433.4    144.0   0.000001674   0.00000   0.00058   0.00018  -0.00065
  11   69443.2    144.0   0.003294778   0.00156   0.02068   0.00956  -0.03232
  12   69892.1    143.1   0.008604513   0.00411  -0.06366   0.00746   0.00160
  13   72767.1    137.4   0.004651002   0.00231   0.00515   0.00605   0.04743
  14   72960.4    137.1   0.000003687   0.00000  -0.00011  -0.00020  -0.00134
  15   73192.3    136.6   0.031338299   0.01568   0.00178  -0.04075  -0.11838
  16   73243.1    136.5   0.000192991   0.00010  -0.00018   0.00337   0.00923
  17   73927.4    135.3   0.034469969   0.01742  -0.00180   0.08648   0.09967
  18   74564.2    134.1   0.000001190   0.00000  -0.00007  -0.00062  -0.00046

-------------------------------------------------------------------
                             CD SPECTRUM
-------------------------------------------------------------------
State  Energy     Wavelength     R         MX        MY        MZ   
       (cm-1)       (nm)     (1e40*cgs)   (au)      (au)      (au)  
-------------------------------------------------------------------
   1   49736.2    201.1     -0.00128  -0.00021  -0.00007   0.00009
   2   49779.3    200.9      0.00047   0.01410  -0.00742  -0.00344
   3   51075.9    195.8      0.00566   0.00018  -0.00009  -0.00003
   4   51148.0    195.5      0.00482  -0.01130  -0.00875   0.02089
   5   63663.3    157.1      0.04267   0.07600   0.94102  -0.34182
   6   64607.7    154.8     -0.17626  -0.92813   0.04601  -0.03876
   7   67964.7    147.1      0.35995   0.00016  -0.00021   0.00018
   8   68278.1    146.5     -0.33956   0.03936   0.19165  -0.20404
   9   69332.6    144.2      0.33132   0.00028   0.00001  -0.00017
  10   69433.4    144.0     -1.45281   0.33123  -0.04436   0.02474
  11   69443.2    144.0      1.11620  -0.00773   0.00105  -0.00051
  12   69892.1    143.1      0.07620   0.00013  -0.00000   0.00011
  13   72767.1    137.4      0.01632  -0.00019  -0.00022  -0.00015
  14   72960.4    137.1     -0.03682  -0.03012  -0.00386  -0.00569
  15   73192.3    136.6      0.24323   0.00866  -0.00266   0.00090
  16   73243.1    136.5     -0.15282   0.11481  -0.03377   0.01104
  17   73927.4    135.3     -0.01681  -0.00049   0.00021  -0.00013
  18   74564.2    134.1      0.04650  -0.07234   0.03593  -0.02422

-------------------------------------------------------------------
         CD SPECTRUM VIA TRANSITION VELOCITY DIPOLE MOMENTS        
-------------------------------------------------------------------
State  Energy     Wavelength     R         MX        MY        MZ   
       (cm-1)       (nm)     (1e40*cgs)   (au)      (au)      (au)  
-------------------------------------------------------------------
   1   49736.2    201.1      0.00123  -0.00021  -0.00007   0.00009
   2   49779.3    200.9     -0.00073   0.01410  -0.00742  -0.00344
   3   51075.9    195.8     -0.00059   0.00018  -0.00009  -0.00003
   4   51148.0    195.5     -0.00038  -0.01130  -0.00875   0.02089
   5   63663.3    157.1     -0.00281   0.07600   0.94102  -0.34182
   6   64607.7    154.8      0.01937  -0.92813   0.04601  -0.03876
   7   67964.7    147.1     -0.07641   0.00016  -0.00021   0.00018
   8   68278.1    146.5      0.08087   0.03936   0.19165  -0.20404
   9   69332.6    144.2     -0.05865   0.00028   0.00001  -0.00017
  10   69433.4    144.0      0.25086   0.33123  -0.04436   0.02474
  11   69443.2    144.0     -0.19838  -0.00773   0.00105  -0.00051
  12   69892.1    143.1     -0.01159   0.00013  -0.00000   0.00011
  13   72767.1    137.4     -0.01368  -0.00019  -0.00022  -0.00015
  14   72960.4    137.1      0.01673  -0.03012  -0.00386  -0.00569
  15   73192.3    136.6      0.02393   0.00866  -0.00266   0.00090
  16   73243.1    136.5     -0.04571   0.11481  -0.03377   0.01104
  17   73927.4    135.3      0.00906  -0.00049   0.00021  -0.00013
  18   74564.2    134.1     -0.00878  -0.07234   0.03593  -0.02422

Total run time:      149.927 sec

           *** ORCA-CIS/TD-DFT FINISHED WITHOUT ERROR ***

Maximum memory used throughout the entire CIS-calculation: 76.3 MB

-----------------------
CIS/TD-DFT TOTAL ENERGY
-----------------------

    E(SCF)  =   -461.064834188 Eh
    DE(CIS) =      0.226614857 Eh (Root  1)
    ----------------------------- ---------
    E(tot)  =   -460.838219330 Eh


-------------------------   --------------------
FINAL SINGLE POINT ENERGY      -460.838219330376
-------------------------   --------------------


                            ***************************************
                            *     ORCA property calculations      *
                            ***************************************

                                    ---------------------
                                    Active property flags
                                    ---------------------
   (+) Dipole Moment


------------------------------------------------------------------------------
                       ORCA ELECTRIC PROPERTIES CALCULATION
------------------------------------------------------------------------------

Dipole Moment Calculation                       ... on
Quadrupole Moment Calculation                   ... off
Polarizability Calculation                      ... off
GBWName                                         ... benzeneDimer-CIS.gbw
Electron density file                           ... benzeneDimer-CIS.scfp
The origin for moment calculation is the CENTER OF MASS  = ( 0.000001,  0.000011  0.000014)

-------------
DIPOLE MOMENT
-------------
                                X             Y             Z
Electronic contribution:      0.00003       0.00019       0.00026
Nuclear contribution   :     -0.00001      -0.00015      -0.00018
                        -----------------------------------------
Total Dipole Moment    :      0.00002       0.00005       0.00008
                        -----------------------------------------
Magnitude (a.u.)       :      0.00010
Magnitude (Debye)      :      0.00024



--------------------
Rotational spectrum 
--------------------
 
Rotational constants in cm-1:     0.054384     0.022519     0.021201 
Rotational constants in MHz :  1630.400814   675.100582   635.582701 

 Dipole components along the rotational axes: 
x,y,z [a.u.] :     0.000087    -0.000020    -0.000037 
x,y,z [Debye]:     0.000220    -0.000051    -0.000094 

 
--------------------------------------------------------------------------
WARNING: There was an error initializing an OpenFabrics device.

  Local host:   cnode13
  Local device: mlx5_0
--------------------------------------------------------------------------
[cnode13:351330] 7 more processes have sent help message help-mpi-btl-openib.txt / error in device init
[cnode13:351330] Set MCA parameter "orte_base_help_aggregate" to 0 to see all help / error messages

Timings for individual modules:

Sum of individual times         ...      159.214 sec (=   2.654 min)
GTO integral calculation        ...        0.492 sec (=   0.008 min)   0.3 %
SCF iterations                  ...        8.419 sec (=   0.140 min)   5.3 %
CIS module                      ...      150.302 sec (=   2.505 min)  94.4 %
                             ****ORCA TERMINATED NORMALLY****
TOTAL RUN TIME: 0 days 0 hours 2 minutes 39 seconds 807 msec

Sender: Unischeduler System <lcz@mgt01>
Subject: Job 129367: <#!/bin/bash
#BSUB -J intel
#BSUB -o benzeneDimer-CIS.out
#BSUB -n 8
#BSUB -q cqueue
#BSUB -R span[hosts=1]
export LD_LIBRARY_PATH=/apps/software/openmpi-4.1.1/lib:/apps/software/orca_5_0_0:$LD_LIBRARY_PATH
export PATH=/apps/software/openmpi-4.1.1/bin:/apps/software/orca_5_0_0:$PATH
/apps/software/orca_5_0_0/orca benzeneDimer-CIS.inp >& benzeneDimer-CIS.out> Done

Job <#!/bin/bash
#BSUB -J intel
#BSUB -o benzeneDimer-CIS.out
#BSUB -n 8
#BSUB -q cqueue
#BSUB -R span[hosts=1]
export LD_LIBRARY_PATH=/apps/software/openmpi-4.1.1/lib:/apps/software/orca_5_0_0:$LD_LIBRARY_PATH
export PATH=/apps/software/openmpi-4.1.1/bin:/apps/software/orca_5_0_0:$PATH
/apps/software/orca_5_0_0/orca benzeneDimer-CIS.inp >& benzeneDimer-CIS.out> was submitted from host <mgt01> by user <lcz>.
Job was executed on host(s) <8*cnode13>, in queue <cqueue>, as user <lcz>.
</apps/users/lcz> was used as the home directory.
</apps/users/lcz/exe10/task1/ORCA> was used as the working directory.
Started at 2022-05-08 11:34:40
Results reported at 2022-05-08 11:37:20

Your job looked like:

------------------------------------------------------------
# User input
#!/bin/bash
#BSUB -J intel
#BSUB -o benzeneDimer-CIS.out
#BSUB -n 8
#BSUB -q cqueue
#BSUB -R span[hosts=1]
export LD_LIBRARY_PATH=/apps/software/openmpi-4.1.1/lib:/apps/software/orca_5_0_0:$LD_LIBRARY_PATH
export PATH=/apps/software/openmpi-4.1.1/bin:/apps/software/orca_5_0_0:$PATH
/apps/software/orca_5_0_0/orca benzeneDimer-CIS.inp >& benzeneDimer-CIS.out
------------------------------------------------------------

Successfully completed.

Resource usage summary:

    CPU time   :         1248.18 sec.
    Max Memory :              1306 MB
    Max Processes  :              13


The output (if any) follows:

