
                                        *****************
                                        * O   R   C   A *
                                        *****************

                                            #,                                       
                                            ###                                      
                                            ####                                     
                                            #####                                    
                                            ######                                   
                                           ########,                                 
                                     ,,################,,,,,                         
                               ,,#################################,,                 
                          ,,##########################################,,             
                       ,#########################################, ''#####,          
                    ,#############################################,,   '####,        
                  ,##################################################,,,,####,       
                ,###########''''           ''''###############################       
              ,#####''   ,,,,##########,,,,          '''####'''          '####       
            ,##' ,,,,###########################,,,                        '##       
           ' ,,###''''                  '''############,,,                           
         ,,##''                                '''############,,,,        ,,,,,,###''
      ,#''                                            '''#######################'''  
     '                                                          ''''####''''         
             ,#######,   #######,   ,#######,      ##                                
            ,#'     '#,  ##    ##  ,#'     '#,    #''#        ######   ,####,        
            ##       ##  ##   ,#'  ##            #'  '#       #        #'  '#        
            ##       ##  #######   ##           ,######,      #####,   #    #        
            '#,     ,#'  ##    ##  '#,     ,#' ,#      #,         ##   #,  ,#        
             '#######'   ##     ##  '#######'  #'      '#     #####' # '####'        



                  #######################################################
                  #                        -***-                        #
                  #          Department of theory and spectroscopy      #
                  #    Directorship and core code : Frank Neese         #
                  #        Max Planck Institute fuer Kohlenforschung    #
                  #                Kaiser Wilhelm Platz 1               #
                  #                 D-45470 Muelheim/Ruhr               #
                  #                      Germany                        #
                  #                                                     #
                  #                  All rights reserved                #
                  #                        -***-                        #
                  #######################################################


                         Program Version 5.0.0 -  RELEASE  -
                                (SVN: $Rev: 19529$)
                ($Date: 2021-06-28 11:36:33 +0200 (Mo, 28 Jun 2021) $)


 With contributions from (in alphabetic order):
   Daniel Aravena         : Magnetic Suceptibility
   Michael Atanasov       : Ab Initio Ligand Field Theory (pilot matlab implementation)
   Alexander A. Auer      : GIAO ZORA, VPT2 properties, NMR spectrum
   Ute Becker             : Parallelization
   Giovanni Bistoni       : ED, misc. LED, open-shell LED, HFLD
   Martin Brehm           : Molecular dynamics
   Dmytro Bykov           : SCF Hessian
   Vijay G. Chilkuri      : MRCI spin determinant printing, contributions to CSF-ICE
   Dipayan Datta          : RHF DLPNO-CCSD density
   Achintya Kumar Dutta   : EOM-CC, STEOM-CC
   Dmitry Ganyushin       : Spin-Orbit,Spin-Spin,Magnetic field MRCI
   Miquel Garcia          : C-PCM Hessian, Gaussian charge scheme
   Yang Guo               : DLPNO-NEVPT2, F12-NEVPT2, CIM, IAO-localization
   Andreas Hansen         : Spin unrestricted coupled pair/coupled cluster methods
   Benjamin Helmich-Paris : MC-RPA, TRAH-SCF, COSX integrals
   Lee Huntington         : MR-EOM, pCC
   Robert Izsak           : Overlap fitted RIJCOSX, COSX-SCS-MP3, EOM
   Marcus Kettner         : VPT2
   Christian Kollmar      : KDIIS, OOCD, Brueckner-CCSD(T), CCSD density, CASPT2, CASPT2-K
   Simone Kossmann        : Meta GGA functionals, TD-DFT gradient, OOMP2, MP2 Hessian
   Martin Krupicka        : Initial AUTO-CI
   Lucas Lang             : DCDCAS
   Marvin Lechner         : AUTO-CI (C++ implementation), FIC-MRCC
   Dagmar Lenk            : GEPOL surface, SMD
   Dimitrios Liakos       : Extrapolation schemes; Compound Job, initial MDCI parallelization
   Dimitrios Manganas     : Further ROCIS development; embedding schemes
   Dimitrios Pantazis     : SARC Basis sets
   Anastasios Papadopoulos: AUTO-CI, single reference methods and gradients
   Taras Petrenko         : DFT Hessian,TD-DFT gradient, ASA, ECA, R-Raman, ABS, FL, XAS/XES, NRVS
   Peter Pinski           : DLPNO-MP2, DLPNO-MP2 Gradient
   Christoph Reimann      : Effective Core Potentials
   Marius Retegan         : Local ZFS, SOC
   Christoph Riplinger    : Optimizer, TS searches, QM/MM, DLPNO-CCSD(T), (RO)-DLPNO pert. Triples
   Tobias Risthaus        : Range-separated hybrids, TD-DFT gradient, RPA, STAB
   Michael Roemelt        : Original ROCIS implementation
   Masaaki Saitow         : Open-shell DLPNO-CCSD energy and density
   Barbara Sandhoefer     : DKH picture change effects
   Avijit Sen             : IP-ROCIS
   Kantharuban Sivalingam : CASSCF convergence, NEVPT2, FIC-MRCI
   Bernardo de Souza      : ESD, SOC TD-DFT
   Georgi Stoychev        : AutoAux, RI-MP2 NMR
   Willem Van den Heuvel  : Paramagnetic NMR
   Boris Wezisla          : Elementary symmetry handling
   Frank Wennmohs         : Technical directorship


 We gratefully acknowledge several colleagues who have allowed us to
 interface, adapt or use parts of their codes:
   Stefan Grimme, W. Hujo, H. Kruse, P. Pracht,  : VdW corrections, initial TS optimization,
                  C. Bannwarth, S. Ehlert          DFT functionals, gCP, sTDA/sTD-DF
   Ed Valeev, F. Pavosevic, A. Kumar             : LibInt (2-el integral package), F12 methods
   Garnet Chan, S. Sharma, J. Yang, R. Olivares  : DMRG
   Ulf Ekstrom                                   : XCFun DFT Library
   Mihaly Kallay                                 : mrcc  (arbitrary order and MRCC methods)
   Jiri Pittner, Ondrej Demel                    : Mk-CCSD
   Frank Weinhold                                : gennbo (NPA and NBO analysis)
   Christopher J. Cramer and Donald G. Truhlar   : smd solvation model
   Lars Goerigk                                  : TD-DFT with DH, B97 family of functionals
   V. Asgeirsson, H. Jonsson                     : NEB implementation
   FAccTs GmbH                                   : IRC, NEB, NEB-TS, DLPNO-Multilevel, CI-OPT
                                                   MM, QMMM, 2- and 3-layer-ONIOM, Crystal-QMMM,
                                                   LR-CPCM, SF, NACMEs, symmetry and pop. for TD-DFT,
                                                   nearIR, NL-DFT gradient (VV10), updates on ESD,
                                                   ML-optimized integration grids
   S Lehtola, MJT Oliveira, MAL Marques          : LibXC Library
   Liviu Ungur et al                             : ANISO software


 Your calculation uses the libint2 library for the computation of 2-el integrals
 For citations please refer to: http://libint.valeyev.net

 Your ORCA version has been built with support for libXC version: 5.1.0
 For citations please refer to: https://tddft.org/programs/libxc/

 This ORCA versions uses:
   CBLAS   interface :  Fast vector & matrix operations
   LAPACKE interface :  Fast linear algebra routines
   SCALAPACK package :  Parallel linear algebra routines
   Shared memory     :  Shared parallel matrices
   BLAS/LAPACK       :  OpenBLAS 0.3.15  USE64BITINT DYNAMIC_ARCH NO_AFFINITY SkylakeX SINGLE_THREADED
        Core in use  :  SkylakeX
   Copyright (c) 2011-2014, The OpenBLAS Project


================================================================================

----- Orbital basis set information -----
Your calculation utilizes the basis: cc-pVTZ 
       H, B-Ne : Obtained from the ccRepo (grant-hill.group.shef.ac.uk/ccrepo) Feb. 2017
                 T. H. Dunning, Jr., J. Chem. Phys. 90, 1007 (1989)
            He : Obtained from the ccRepo (grant-hill.group.shef.ac.uk/ccrepo) Feb. 2017
                 D. E. Woon, T. H. Dunning, Jr., J. Chem. Phys. 100, 2975 (1994)
  Li-Be, Na-Mg : Obtained from the ccRepo (grant-hill.group.shef.ac.uk/ccrepo) Feb. 2017
                 B. P. Prascher, D. E. Woon, K. A. Peterson, T. H. Dunning, Jr., A. K. Wilson, Theor. Chem. Acc. 128, 69 (2011)
         Al-Ar : Obtained from the ccRepo (grant-hill.group.shef.ac.uk/ccrepo) Feb. 2017
                 D. E. Woon, T. H. Dunning, Jr., J. Chem. Phys. 98, 1358 (1993)
            Ca : Obtained from the Peterson Research Group Website (tyr0.chem.wsu.edu/~kipeters) Feb. 2017
                 J. Koput, K. A. Peterson, J. Phys. Chem. 106, 9595 (2002)
         Sc-Zn : Obtained from the ccRepo (grant-hill.group.shef.ac.uk/ccrepo) Feb. 2017
                 N. B. Balabanov, K. A. Peterson, J. Chem. Phys. 123, 064107 (2005)
                 N. B. Balabanov, K. A. Peterson, J. Chem. Phys. 125, 074110 (2006)
         Ga-Kr : Obtained from the ccRepo (grant-hill.group.shef.ac.uk/ccrepo) Feb. 2017
                 A. K. Wilson, D. E. Woon, K. A. Peterson, T. H. Dunning, Jr., J. Chem. Phys. 110, 7667 (1999)
             Y : Obtained from the ccRepo (grant-hill.group.shef.ac.uk/ccrepo) Feb. 2017
                 K. A. Peterson, D. Figgen, M. Dolg, H. Stoll, J. Chem. Phys. 126, 124101 (2007)
        Ag, Au : Obtained from the Peterson Research Group Website (tyr0.chem.wsu.edu/~kipeters) Feb. 2017
                 K. A. Peterson, C. Puzzarini, Theor. Chem. Acc. 114, 283 (2005)

================================================================================
                                        WARNINGS
                       Please study these warnings very carefully!
================================================================================


INFO   : the flag for use of the SHARK integral package has been found!

================================================================================
                                       INPUT FILE
================================================================================
NAME = 2,7-dicl-dibenzene.inp
|  1> ! BLYP cc-pVTZ NoRI pal8            
|  2> 
|  3> *xyz 0 1
|  4>   C   -0.84533195991773      0.95631204799741      0.86695688758137
|  5>   C   0.46296917953950      0.89055132107898      0.41153738968092
|  6>   C   1.06498249109929      2.05041746604826     -0.04872626223504
|  7>   C   0.38682375533153      3.25825741761093     -0.05957630313133
|  8>   C   -0.92916629483352      3.32496446678289      0.39786117470048
|  9>   C   -1.53691904595740      2.15806885302784      0.86178357772044
| 10>   H   -1.33177779310003      0.05786162666320      1.22288286662819
| 11>   H   1.00911644617855     -0.04137764481499      0.41174217012473
| 12>   H   0.89340943637666      4.14652768979640     -0.40661874558071
| 13>   H   -2.56260459262502      2.18503471734340      1.20271069002731
| 14>   C   -1.66709331376272      4.62322731007777      0.38662794093699
| 15>   C   -2.42161858132883      5.01473379007752      1.49250102782185
| 16>   C   -1.61923201631221      5.46623475990715     -0.72389685760276
| 17>   C   -3.10577169358506      6.21908872396761      1.47479389475736
| 18>   H   -2.46369194088787      4.39499072034369      2.37581764658229
| 19>   C   -2.30901947987771      6.66904435935388     -0.72694800403690
| 20>   H   -1.05555752795261      5.17208444276276     -1.59838613456934
| 21>   C   -3.05941590604282      7.05751618377553      0.37275066068088
| 22>   H   -2.26865845182014      7.30948735218955     -1.59800079723894
| 23>   H   -3.60007805771479      7.99261925989212      0.37887337421372
| 24>   Cl  2.70997882629083      1.99495162290832     -0.61716762133114
| 25>   Cl  -4.03387825909787      6.68923511320967      2.87110846426962
| 26> **                         ****END OF INPUT****
================================================================================

                       ****************************
                       * Single Point Calculation *
                       ****************************

---------------------------------
CARTESIAN COORDINATES (ANGSTROEM)
---------------------------------
  C     -0.845332    0.956312    0.866957
  C      0.462969    0.890551    0.411537
  C      1.064982    2.050417   -0.048726
  C      0.386824    3.258257   -0.059576
  C     -0.929166    3.324964    0.397861
  C     -1.536919    2.158069    0.861784
  H     -1.331778    0.057862    1.222883
  H      1.009116   -0.041378    0.411742
  H      0.893409    4.146528   -0.406619
  H     -2.562605    2.185035    1.202711
  C     -1.667093    4.623227    0.386628
  C     -2.421619    5.014734    1.492501
  C     -1.619232    5.466235   -0.723897
  C     -3.105772    6.219089    1.474794
  H     -2.463692    4.394991    2.375818
  C     -2.309019    6.669044   -0.726948
  H     -1.055558    5.172084   -1.598386
  C     -3.059416    7.057516    0.372751
  H     -2.268658    7.309487   -1.598001
  H     -3.600078    7.992619    0.378873
  Cl     2.709979    1.994952   -0.617168
  Cl    -4.033878    6.689235    2.871108

----------------------------
CARTESIAN COORDINATES (A.U.)
----------------------------
  NO LB      ZA    FRAG     MASS         X           Y           Z
   0 C     6.0000    0    12.011   -1.597446    1.807168    1.638311
   1 C     6.0000    0    12.011    0.874885    1.682898    0.777693
   2 C     6.0000    0    12.011    2.012525    3.874727   -0.092079
   3 C     6.0000    0    12.011    0.730991    6.157214   -0.112583
   4 C     6.0000    0    12.011   -1.755870    6.283272    0.751849
   5 C     6.0000    0    12.011   -2.904356    4.078159    1.628535
   6 H     1.0000    0     1.008   -2.516695    0.109343    2.310914
   7 H     1.0000    0     1.008    1.906954   -0.078192    0.778080
   8 H     1.0000    0     1.008    1.688299    7.835802   -0.768398
   9 H     1.0000    0     1.008   -4.842621    4.129117    2.272794
  10 C     6.0000    0    12.011   -3.150350    8.736633    0.730621
  11 C     6.0000    0    12.011   -4.576196    9.476473    2.820418
  12 C     6.0000    0    12.011   -3.059905   10.329687   -1.367967
  13 C     6.0000    0    12.011   -5.869058   11.752374    2.786957
  14 H     1.0000    0     1.008   -4.655703    8.305329    4.489645
  15 C     6.0000    0    12.011   -4.363414   12.602667   -1.373733
  16 H     1.0000    0     1.008   -1.994715    9.773823   -3.020512
  17 C     6.0000    0    12.011   -5.781458   13.336773    0.704397
  18 H     1.0000    0     1.008   -4.287143   13.812929   -3.019784
  19 H     1.0000    0     1.008   -6.803162   15.103861    0.715967
  20 Cl   17.0000    0    35.453    5.121118    3.769912   -1.166278
  21 Cl   17.0000    0    35.453   -7.622925   12.640822    5.425609

--------------------------------
INTERNAL COORDINATES (ANGSTROEM)
--------------------------------
 C      0   0   0     0.000000000000     0.00000000     0.00000000
 C      1   0   0     1.386860938875     0.00000000     0.00000000
 C      2   1   0     1.385479025758   118.63952714     0.00000000
 C      3   2   1     1.385241618952   121.32071476     0.00000000
 C      4   3   2     1.394822099290   120.06766846   359.96103452
 C      1   2   3     1.386556482495   120.69038160     0.00000000
 H      1   2   3     1.081908503884   119.52502475   179.56072184
 H      2   1   3     1.080170577393   121.18603541   180.01212109
 H      4   3   2     1.079857206092   119.34652679   178.77523602
 H      6   1   2     1.081198082863   119.57822093   178.80183793
 C      5   4   3     1.493368300550   120.35248133   180.11475760
 C     11   5   4     1.394826508055   120.35463753   224.79175713
 C     11   5   4     1.395069027838   120.95497549    44.87155408
 C     12  11   5     1.385225552160   120.07080458   180.11861286
 H     12  11   5     1.079861050805   120.56554825     1.31974039
 C     13  11   5     1.386566618273   120.58913713   179.89988759
 H     13  11   5     1.081196019893   119.82373189     1.10118951
 C     14  12  11     1.385499460185   121.31703547   359.96109820
 H     16  13  11     1.081909981562   119.78316654   180.44560859
 H     18  14  12     1.080171658966   120.17331808   180.00336495
 Cl     3   2   1     1.741325639069   119.48917474   179.65393631
 Cl    14  12  11     1.741296586253   119.19196488   180.32217609

---------------------------
INTERNAL COORDINATES (A.U.)
---------------------------
 C      0   0   0     0.000000000000     0.00000000     0.00000000
 C      1   0   0     2.620787360307     0.00000000     0.00000000
 C      2   1   0     2.618175922975   118.63952714     0.00000000
 C      3   2   1     2.617727289129   121.32071476     0.00000000
 C      4   3   2     2.635831773199   120.06766846   359.96103452
 C      1   2   3     2.620212021129   120.69038160     0.00000000
 H      1   2   3     2.044510774301   119.52502475   179.56072184
 H      2   1   3     2.041226569191   121.18603541   180.01212109
 H      4   3   2     2.040634383256   119.34652679   178.77523602
 H      6   1   2     2.043168273132   119.57822093   178.80183793
 C      5   4   3     2.822057105118   120.35248133   180.11475760
 C     11   5   4     2.635840104558   120.35463753   224.79175713
 C     11   5   4     2.636298400530   120.95497549    44.87155408
 C     12  11   5     2.617696927292   120.07080458   180.11861286
 H     12  11   5     2.040641648710   120.56554825     1.31974039
 C     13  11   5     2.620231174973   120.58913713   179.89988759
 H     13  11   5     2.043164374684   119.82373189     1.10118951
 C     14  12  11     2.618214538445   121.31703547   359.96109820
 H     16  13  11     2.044513566708   119.78316654   180.44560859
 H     18  14  12     2.041228613070   120.17331808   180.00336495
 Cl     3   2   1     3.290628567816   119.48917474   179.65393631
 Cl    14  12  11     3.290573665951   119.19196488   180.32217609

---------------------
BASIS SET INFORMATION
---------------------
There are 3 groups of distinct atoms

 Group   1 Type C   : 18s5p2d1f contracted to 4s3p2d1f pattern {8811/311/11/1}
 Group   2 Type H   : 5s2p1d contracted to 3s2p1d pattern {311/11/1}
 Group   3 Type Cl  : 41s16p2d1f contracted to 5s4p2d1f pattern {13131311/7711/11/1}

Atom   0C    basis set group =>   1
Atom   1C    basis set group =>   1
Atom   2C    basis set group =>   1
Atom   3C    basis set group =>   1
Atom   4C    basis set group =>   1
Atom   5C    basis set group =>   1
Atom   6H    basis set group =>   2
Atom   7H    basis set group =>   2
Atom   8H    basis set group =>   2
Atom   9H    basis set group =>   2
Atom  10C    basis set group =>   1
Atom  11C    basis set group =>   1
Atom  12C    basis set group =>   1
Atom  13C    basis set group =>   1
Atom  14H    basis set group =>   2
Atom  15C    basis set group =>   1
Atom  16H    basis set group =>   2
Atom  17C    basis set group =>   1
Atom  18H    basis set group =>   2
Atom  19H    basis set group =>   2
Atom  20Cl   basis set group =>   3
Atom  21Cl   basis set group =>   3
--------------------------------------------------------------------------
WARNING: There was an error initializing an OpenFabrics device.

  Local host:   cnode12
  Local device: mlx5_0
--------------------------------------------------------------------------


           ************************************************************
           *        Program running with 8 parallel MPI-processes     *
           *              working on a common directory               *
           ************************************************************
------------------------------------------------------------------------------
                           ORCA GTO INTEGRAL CALCULATION
------------------------------------------------------------------------------
------------------------------------------------------------------------------
                   ___                                                        
                  /   \      - P O W E R E D   B Y -                         
                 /     \                                                     
                 |  |  |   _    _      __       _____    __    __             
                 |  |  |  | |  | |    /  \     |  _  \  |  |  /  |          
                  \  \/   | |  | |   /    \    | | | |  |  | /  /          
                 / \  \   | |__| |  /  /\  \   | |_| |  |  |/  /          
                |  |  |   |  __  | /  /__\  \  |    /   |      \           
                |  |  |   | |  | | |   __   |  |    \   |  |\   \          
                \     /   | |  | | |  |  |  |  | |\  \  |  | \   \       
                 \___/    |_|  |_| |__|  |__|  |_| \__\ |__|  \__/        
                                                                              
                      - O R C A' S   B I G   F R I E N D -                    
                                      &                                       
                       - I N T E G R A L  F E E D E R -                       
                                                                              
 v1 FN, 2020, v2 2021                                                         
------------------------------------------------------------------------------


Reading SHARK input file 2,7-dicl-dibenzene.SHARKINP.tmp ... ok
----------------------
SHARK INTEGRAL PACKAGE
----------------------

Number of atoms                             ...     22
Number of basis functions                   ...    540
Number of shells                            ...    192
Maximum angular momentum                    ...      3
Integral batch strategy                     ... SHARK/LIBINT Hybrid
RI-J (if used) integral strategy            ... SPLIT-RIJ (Revised 2003 algorithm where possible)
Printlevel                                  ...      1
Contraction scheme used                     ... SEGMENTED contraction
Coulomb Range Separation                    ... NOT USED
Exchange Range Separation                   ... NOT USED
Finite Nucleus Model                        ... NOT USED
Auxiliary Coulomb fitting basis             ... NOT available
Auxiliary J/K fitting basis                 ... NOT available
Auxiliary Correlation fitting basis         ... NOT available
Auxiliary 'external' fitting basis          ... NOT available
Integral threshold                          ...     1.000000e-10
Primitive cut-off                           ...     1.000000e-11
Primitive pair pre-selection threshold      ...     1.000000e-11

Calculating pre-screening integrals         ... done (  0.4 sec) Dimension = 192
Organizing shell pair data                  ... done (  0.1 sec)
Shell pair information
Total number of shell pairs                 ...     18528
Shell pairs after pre-screening             ...     14915
Total number of primitive shell pairs       ...    124540
Primitive shell pairs kept                  ...     53765
          la=0 lb=0:   2812 shell pairs
          la=1 lb=0:   4044 shell pairs
          la=1 lb=1:   1506 shell pairs
          la=2 lb=0:   2332 shell pairs
          la=2 lb=1:   1689 shell pairs
          la=2 lb=2:    501 shell pairs
          la=3 lb=0:    920 shell pairs
          la=3 lb=1:    658 shell pairs
          la=3 lb=2:    374 shell pairs
          la=3 lb=3:     79 shell pairs

Calculating one electron integrals          ... done (  0.0 sec)
Calculating Nuclear repulsion               ... done (  0.0 sec) ENN=    944.819064205746 Eh

SHARK setup successfully completed in   0.6 seconds

Maximum memory used throughout the entire GTOINT-calculation: 46.8 MB
[cnode12:27356] 7 more processes have sent help message help-mpi-btl-openib.txt / error in device init
[cnode12:27356] Set MCA parameter "orte_base_help_aggregate" to 0 to see all help / error messages
--------------------------------------------------------------------------
WARNING: There was an error initializing an OpenFabrics device.

  Local host:   cnode12
  Local device: mlx5_0
--------------------------------------------------------------------------


           ************************************************************
           *        Program running with 8 parallel MPI-processes     *
           *              working on a common directory               *
           ************************************************************
-------------------------------------------------------------------------------
                                 ORCA SCF
-------------------------------------------------------------------------------

------------
SCF SETTINGS
------------
Hamiltonian:
 Density Functional     Method          .... DFT(GTOs)
 Exchange Functional    Exchange        .... B88
   X-Alpha parameter    XAlpha          ....  0.666667
   Becke's b parameter  XBeta           ....  0.004200
 Correlation Functional Correlation     .... LYP
 Gradients option       PostSCFGGA      .... off
   Density functional embedding theory  .... OFF
   NL short-range parameter             ....  4.000000


General Settings:
 Integral files         IntName         .... 2,7-dicl-dibenzene
 Hartree-Fock type      HFTyp           .... RHF
 Total Charge           Charge          ....    0
 Multiplicity           Mult            ....    1
 Number of Electrons    NEL             ....  114
 Basis Dimension        Dim             ....  540
 Nuclear Repulsion      ENuc            ....    944.8190642057 Eh

Convergence Acceleration:
 DIIS                   CNVDIIS         .... on
   Start iteration      DIISMaxIt       ....    12
   Startup error        DIISStart       ....  0.200000
   # of expansion vecs  DIISMaxEq       ....     5
   Bias factor          DIISBfac        ....   1.050
   Max. coefficient     DIISMaxC        ....  10.000
 Trust-Rad. Augm. Hess. CNVTRAH         .... auto
   Auto Start mean grad. ratio tolernc. ....  1.125000
   Auto Start start iteration           ....    20
   Auto Start num. interpolation iter.  ....    10
   Max. Number of Micro iterations      ....    16
   Max. Number of Macro iterations      .... Maxiter - #DIIS iter
   Number of Davidson start vectors     ....     2
   Converg. threshold I  (grad. norm)   ....   5.000e-05
   Converg. threshold II (energy diff.) ....   1.000e-06
   Grad. Scal. Fac. for Micro threshold ....   0.100
   Minimum threshold for Micro iter.    ....   0.010
   NR start threshold (gradient norm)   ....   0.001
   Initial trust radius                 ....   0.400
   Minimum AH scaling param. (alpha)    ....   1.000
   Maximum AH scaling param. (alpha)    .... 1000.000
   Orbital update algorithm             .... Taylor
   White noise on init. David. guess    .... on
   Maximum white noise                  ....   0.010
   Quad. conv. algorithm                .... NR
 SOSCF                  CNVSOSCF        .... on
   Start iteration      SOSCFMaxIt      ....   150
   Startup grad/error   SOSCFStart      ....  0.003300
 Level Shifting         CNVShift        .... on
   Level shift para.    LevelShift      ....    0.2500
   Turn off err/grad.   ShiftErr        ....    0.0010
 Zerner damping         CNVZerner       .... off
 Static damping         CNVDamp         .... on
   Fraction old density DampFac         ....    0.7000
   Max. Damping (<1)    DampMax         ....    0.9800
   Min. Damping (>=0)   DampMin         ....    0.0000
   Turn off err/grad.   DampErr         ....    0.1000
 Fernandez-Rico         CNVRico         .... off

SCF Procedure:
 Maximum # iterations   MaxIter         ....   125
 SCF integral mode      SCFMode         .... Direct
   Integral package                     .... SHARK and LIBINT hybrid scheme
 Reset frequency        DirectResetFreq ....    20
 Integral Threshold     Thresh          ....  1.000e-10 Eh
 Primitive CutOff       TCut            ....  1.000e-11 Eh

Convergence Tolerance:
 Convergence Check Mode ConvCheckMode   .... Total+1el-Energy
 Convergence forced     ConvForced      .... 0
 Energy Change          TolE            ....  1.000e-06 Eh
 1-El. energy change                    ....  1.000e-03 Eh
 Orbital Gradient       TolG            ....  5.000e-05
 Orbital Rotation angle TolX            ....  5.000e-05
 DIIS Error             TolErr          ....  1.000e-06


Diagonalization of the overlap matrix:
Smallest eigenvalue                        ... 3.248e-05
Time for diagonalization                   ...    0.034 sec
Threshold for overlap eigenvalues          ... 1.000e-08
Number of eigenvalues below threshold      ... 0
Time for construction of square roots      ...    0.058 sec
Total time needed                          ...    0.093 sec

Time for model grid setup =    0.124 sec

------------------------------
INITIAL GUESS: MODEL POTENTIAL
------------------------------
Loading Hartree-Fock densities                     ... done
Calculating cut-offs                               ... done
Initializing the effective Hamiltonian             ... done
Setting up the integral package (SHARK)            ... done
Starting the Coulomb interaction                   ... done (   0.2 sec)
Reading the grid                                   ... done
Mapping shells                                     ... done
Starting the XC term evaluation                    ... done (   0.1 sec)
  promolecular density results
     # of electrons  =    114.001871602
     EX              =   -119.172501538
     EC              =     -4.112672143
     EX+EC           =   -123.285173681
Transforming the Hamiltonian                       ... done (   0.0 sec)
Diagonalizing the Hamiltonian                      ... done (   0.0 sec)
Back transforming the eigenvectors                 ... done (   0.0 sec)
Now organizing SCF variables                       ... done
                      ------------------
                      INITIAL GUESS DONE (   0.5 sec)
                      ------------------
-------------------
DFT GRID GENERATION
-------------------

General Integration Accuracy     IntAcc      ... 4.388
Radial Grid Type                 RadialGrid  ... OptM3 with GC (2021)
Angular Grid (max. ang.)         AngularGrid ... 4 (Lebedev-302)
Angular grid pruning method      GridPruning ... 4 (adaptive)
Weight generation scheme         WeightScheme... Becke
Basis function cutoff            BFCut       ... 1.0000e-10
Integration weight cutoff        WCut        ... 1.0000e-14
Angular grids for H and He will be reduced by one unit
Partially contracted basis set               ... off
Rotationally invariant grid construction     ... off

Total number of grid points                  ...   112188
Total number of batches                      ...     1761
Average number of points per batch           ...       63
Average number of grid points per atom       ...     5099
Time for grid setup =    0.575 sec

--------------
SCF ITERATIONS
--------------
ITER       Energy         Delta-E        Max-DP      RMS-DP      [F,P]     Damp
               ***  Starting incremental Fock matrix formation  ***
[cnode12:27424] 7 more processes have sent help message help-mpi-btl-openib.txt / error in device init
[cnode12:27424] Set MCA parameter "orte_base_help_aggregate" to 0 to see all help / error messages
  0  -1382.2259934307   0.000000000000 0.02399553  0.00052903  0.1444694 0.7000
  1  -1382.3578387924  -0.131845361697 0.01802612  0.00043099  0.0656707 0.7000
                               ***Turning on DIIS***
  2  -1382.4040176201  -0.046178827712 0.04028222  0.00082097  0.0212147 0.0000
  3  -1382.4687663129  -0.064748692830 0.01659324  0.00034535  0.0443689 0.0000
  4  -1382.4921370802  -0.023370767249 0.00973407  0.00014674  0.0087577 0.0000
                      *** Initiating the SOSCF procedure ***
                           *** Shutting down DIIS ***
                      *** Re-Reading the Fockian *** 
                      *** Removing any level shift *** 
ITER      Energy       Delta-E        Grad      Rot      Max-DP    RMS-DP
  5  -1382.49353608  -0.0013989961  0.001042  0.001042  0.003007  0.000057
               *** Restarting incremental Fock matrix formation ***
  6  -1382.49361504  -0.0000789595  0.000499  0.002699  0.002597  0.000045
  7  -1382.49360070   0.0000143316  0.001244  0.001895  0.000852  0.000014
  8  -1382.49362440  -0.0000236914  0.000345  0.001519  0.001354  0.000020
  9  -1382.49362307   0.0000013229  0.000318  0.000705  0.000638  0.000007
 10  -1382.49362708  -0.0000040050  0.000097  0.000439  0.000407  0.000007
 11  -1382.49362661   0.0000004704  0.000127  0.000309  0.000240  0.000004
 12  -1382.49362740  -0.0000007918  0.000031  0.000105  0.000168  0.000002
 13  -1382.49362731   0.0000000934  0.000048  0.000070  0.000129  0.000002
                 **** Energy Check signals convergence ****
              ***Rediagonalizing the Fockian in SOSCF/NRSCF***

               *****************************************************
               *                     SUCCESS                       *
               *           SCF CONVERGED AFTER  14 CYCLES          *
               *****************************************************


----------------
TOTAL SCF ENERGY
----------------

Total Energy       :        -1382.49362744 Eh          -37619.56414 eV

Components:
Nuclear Repulsion  :          944.81906421 Eh           25709.83380 eV
Electronic Energy  :        -2327.31269165 Eh          -63329.39794 eV
One Electron Energy:        -3771.20384163 Eh         -102619.67361 eV
Two Electron Energy:         1443.89114999 Eh           39290.27567 eV

Virial components:
Potential Energy   :        -2759.94034409 Eh          -75101.79486 eV
Kinetic Energy     :         1377.44671665 Eh           37482.23072 eV
Virial Ratio       :            2.00366396


DFT components:
N(Alpha)           :       57.000025850088 electrons
N(Beta)            :       57.000025850088 electrons
N(Total)           :      114.000051700176 electrons
E(X)               :     -120.366829469524 Eh       
E(C)               :       -4.133580887598 Eh       
E(XC)              :     -124.500410357122 Eh       
DFET-embed. en.    :        0.000000000000 Eh       

---------------
SCF CONVERGENCE
---------------

  Last Energy change         ...   -1.3442e-07  Tolerance :   1.0000e-06
  Last MAX-Density change    ...    3.8094e-05  Tolerance :   1.0000e-05
  Last RMS-Density change    ...    5.1258e-07  Tolerance :   1.0000e-06
  Last Orbital Gradient      ...    2.3322e-06  Tolerance :   5.0000e-05
  Last Orbital Rotation      ...    1.2836e-05  Tolerance :   5.0000e-05

             **** THE GBW FILE WAS UPDATED (2,7-dicl-dibenzene.gbw) ****
             **** DENSITY 2,7-dicl-dibenzene.scfp WAS UPDATED ****
             **** ENERGY FILE WAS UPDATED (2,7-dicl-dibenzene.en.tmp) ****
             **** THE GBW FILE WAS UPDATED (2,7-dicl-dibenzene.gbw) ****
             **** DENSITY 2,7-dicl-dibenzene.scfp WAS UPDATED ****
----------------
ORBITAL ENERGIES
----------------

  NO   OCC          E(Eh)            E(eV) 
   0   2.0000    -100.768302     -2742.0449 
   1   2.0000    -100.768301     -2742.0449 
   2   2.0000      -9.975379      -271.4439 
   3   2.0000      -9.975376      -271.4438 
   4   2.0000      -9.938251      -270.4336 
   5   2.0000      -9.938066      -270.4285 
   6   2.0000      -9.926214      -270.1060 
   7   2.0000      -9.926211      -270.1059 
   8   2.0000      -9.926044      -270.1014 
   9   2.0000      -9.926041      -270.1013 
  10   2.0000      -9.925571      -270.0885 
  11   2.0000      -9.925569      -270.0885 
  12   2.0000      -9.921917      -269.9891 
  13   2.0000      -9.921913      -269.9890 
  14   2.0000      -9.184161      -249.9137 
  15   2.0000      -9.184160      -249.9137 
  16   2.0000      -7.017298      -190.9504 
  17   2.0000      -7.017294      -190.9503 
  18   2.0000      -7.007216      -190.6760 
  19   2.0000      -7.007215      -190.6760 
  20   2.0000      -7.006594      -190.6591 
  21   2.0000      -7.006594      -190.6591 
  22   2.0000      -0.819374       -22.2963 
  23   2.0000      -0.812788       -22.1171 
  24   2.0000      -0.775343       -21.0981 
  25   2.0000      -0.757165       -20.6035 
  26   2.0000      -0.710442       -19.3321 
  27   2.0000      -0.679632       -18.4937 
  28   2.0000      -0.665194       -18.1009 
  29   2.0000      -0.659132       -17.9359 
  30   2.0000      -0.579143       -15.7593 
  31   2.0000      -0.562193       -15.2980 
  32   2.0000      -0.539485       -14.6801 
  33   2.0000      -0.525682       -14.3045 
  34   2.0000      -0.483013       -13.1435 
  35   2.0000      -0.459957       -12.5161 
  36   2.0000      -0.437736       -11.9114 
  37   2.0000      -0.425755       -11.5854 
  38   2.0000      -0.415855       -11.3160 
  39   2.0000      -0.404662       -11.0114 
  40   2.0000      -0.390789       -10.6339 
  41   2.0000      -0.388377       -10.5683 
  42   2.0000      -0.386347       -10.5130 
  43   2.0000      -0.361920        -9.8483 
  44   2.0000      -0.354733        -9.6528 
  45   2.0000      -0.341701        -9.2982 
  46   2.0000      -0.329805        -8.9745 
  47   2.0000      -0.319015        -8.6808 
  48   2.0000      -0.314345        -8.5538 
  49   2.0000      -0.303370        -8.2551 
  50   2.0000      -0.292843        -7.9687 
  51   2.0000      -0.272787        -7.4229 
  52   2.0000      -0.270195        -7.3524 
  53   2.0000      -0.254482        -6.9248 
  54   2.0000      -0.229204        -6.2370 
  55   2.0000      -0.223501        -6.0818 
  56   2.0000      -0.214756        -5.8438 
  57   0.0000      -0.069738        -1.8977 
  58   0.0000      -0.050165        -1.3651 
  59   0.0000      -0.049684        -1.3520 
  60   0.0000      -0.026602        -0.7239 
  61   0.0000      -0.007305        -0.1988 
  62   0.0000      -0.004017        -0.1093 
  63   0.0000       0.032210         0.8765 
  64   0.0000       0.032560         0.8860 
  65   0.0000       0.055004         1.4967 
  66   0.0000       0.057170         1.5557 
  67   0.0000       0.069975         1.9041 
  68   0.0000       0.080271         2.1843 
  69   0.0000       0.080879         2.2008 
  70   0.0000       0.091050         2.4776 
  71   0.0000       0.101796         2.7700 
  72   0.0000       0.112027         3.0484 
  73   0.0000       0.147526         4.0144 
  74   0.0000       0.151848         4.1320 
  75   0.0000       0.179126         4.8743 
  76   0.0000       0.180757         4.9187 
  77   0.0000       0.199589         5.4311 
  78   0.0000       0.203237         5.5304 
  79   0.0000       0.209737         5.7072 
  80   0.0000       0.220161         5.9909 
  81   0.0000       0.227055         6.1785 
  82   0.0000       0.231379         6.2961 
  83   0.0000       0.232618         6.3299 
  84   0.0000       0.242914         6.6100 
  85   0.0000       0.248710         6.7677 
  86   0.0000       0.248911         6.7732 
  87   0.0000       0.258884         7.0446 
  88   0.0000       0.271398         7.3851 
  89   0.0000       0.276256         7.5173 
  90   0.0000       0.280337         7.6284 
  91   0.0000       0.292862         7.9692 
  92   0.0000       0.295947         8.0531 
  93   0.0000       0.302443         8.2299 
  94   0.0000       0.305342         8.3088 
  95   0.0000       0.308151         8.3852 
  96   0.0000       0.322572         8.7776 
  97   0.0000       0.323184         8.7943 
  98   0.0000       0.324953         8.8424 
  99   0.0000       0.329597         8.9688 
 100   0.0000       0.335254         9.1227 
 101   0.0000       0.336038         9.1441 
 102   0.0000       0.339905         9.2493 
 103   0.0000       0.342207         9.3119 
 104   0.0000       0.344144         9.3646 
 105   0.0000       0.350323         9.5328 
 106   0.0000       0.357692         9.7333 
 107   0.0000       0.363931         9.9031 
 108   0.0000       0.365519         9.9463 
 109   0.0000       0.379293        10.3211 
 110   0.0000       0.384701        10.4682 
 111   0.0000       0.390381        10.6228 
 112   0.0000       0.394612        10.7379 
 113   0.0000       0.408314        11.1108 
 114   0.0000       0.409201        11.1349 
 115   0.0000       0.418399        11.3852 
 116   0.0000       0.422126        11.4866 
 117   0.0000       0.430102        11.7037 
 118   0.0000       0.434525        11.8240 
 119   0.0000       0.439229        11.9520 
 120   0.0000       0.442456        12.0398 
 121   0.0000       0.446920        12.1613 
 122   0.0000       0.447312        12.1720 
 123   0.0000       0.451620        12.2892 
 124   0.0000       0.486300        13.2329 
 125   0.0000       0.498388        13.5618 
 126   0.0000       0.502032        13.6610 
 127   0.0000       0.510385        13.8883 
 128   0.0000       0.518740        14.1156 
 129   0.0000       0.527157        14.3447 
 130   0.0000       0.536908        14.6100 
 131   0.0000       0.538085        14.6420 
 132   0.0000       0.554461        15.0876 
 133   0.0000       0.559984        15.2379 
 134   0.0000       0.569468        15.4960 
 135   0.0000       0.581642        15.8273 
 136   0.0000       0.590775        16.0758 
 137   0.0000       0.593298        16.1445 
 138   0.0000       0.600721        16.3465 
 139   0.0000       0.607911        16.5421 
 140   0.0000       0.627447        17.0737 
 141   0.0000       0.642438        17.4816 
 142   0.0000       0.652870        17.7655 
 143   0.0000       0.664512        18.0823 
 144   0.0000       0.678305        18.4576 
 145   0.0000       0.681823        18.5534 
 146   0.0000       0.682397        18.5690 
 147   0.0000       0.687198        18.6996 
 148   0.0000       0.695308        18.9203 
 149   0.0000       0.695843        18.9349 
 150   0.0000       0.700910        19.0727 
 151   0.0000       0.703870        19.1533 
 152   0.0000       0.709688        19.3116 
 153   0.0000       0.711239        19.3538 
 154   0.0000       0.741004        20.1637 
 155   0.0000       0.751923        20.4609 
 156   0.0000       0.755417        20.5559 
 157   0.0000       0.768949        20.9242 
 158   0.0000       0.777634        21.1605 
 159   0.0000       0.787891        21.4396 
 160   0.0000       0.793975        21.6052 
 161   0.0000       0.799210        21.7476 
 162   0.0000       0.808447        21.9990 
 163   0.0000       0.822903        22.3923 
 164   0.0000       0.839914        22.8552 
 165   0.0000       0.853653        23.2291 
 166   0.0000       0.870792        23.6954 
 167   0.0000       0.876866        23.8607 
 168   0.0000       0.885452        24.0944 
 169   0.0000       0.907076        24.6828 
 170   0.0000       0.907827        24.7032 
 171   0.0000       0.919450        25.0195 
 172   0.0000       0.923068        25.1180 
 173   0.0000       0.941349        25.6154 
 174   0.0000       0.946370        25.7520 
 175   0.0000       0.953843        25.9554 
 176   0.0000       0.962455        26.1897 
 177   0.0000       0.980636        26.6845 
 178   0.0000       0.991988        26.9934 
 179   0.0000       0.998738        27.1771 
 180   0.0000       1.011777        27.5318 
 181   0.0000       1.017385        27.6845 
 182   0.0000       1.023282        27.8449 
 183   0.0000       1.034326        28.1454 
 184   0.0000       1.040834        28.3225 
 185   0.0000       1.046863        28.4866 
 186   0.0000       1.058805        28.8116 
 187   0.0000       1.073919        29.2228 
 188   0.0000       1.089240        29.6397 
 189   0.0000       1.114572        30.3290 
 190   0.0000       1.124132        30.5892 
 191   0.0000       1.142448        31.0876 
 192   0.0000       1.148035        31.2396 
 193   0.0000       1.151840        31.3432 
 194   0.0000       1.164737        31.6941 
 195   0.0000       1.184645        32.2358 
 196   0.0000       1.184705        32.2375 
 197   0.0000       1.195804        32.5395 
 198   0.0000       1.202350        32.7176 
 199   0.0000       1.207116        32.8473 
 200   0.0000       1.214799        33.0564 
 201   0.0000       1.221058        33.2267 
 202   0.0000       1.242535        33.8111 
 203   0.0000       1.256597        34.1937 
 204   0.0000       1.265509        34.4362 
 205   0.0000       1.269945        34.5570 
 206   0.0000       1.282647        34.9026 
 207   0.0000       1.285925        34.9918 
 208   0.0000       1.292546        35.1720 
 209   0.0000       1.300072        35.3767 
 210   0.0000       1.315126        35.7864 
 211   0.0000       1.316639        35.8276 
 212   0.0000       1.327272        36.1169 
 213   0.0000       1.352116        36.7929 
 214   0.0000       1.372081        37.3362 
 215   0.0000       1.374399        37.3993 
 216   0.0000       1.389325        37.8054 
 217   0.0000       1.390084        37.8261 
 218   0.0000       1.400013        38.0963 
 219   0.0000       1.418409        38.5969 
 220   0.0000       1.422121        38.6979 
 221   0.0000       1.462867        39.8066 
 222   0.0000       1.467390        39.9297 
 223   0.0000       1.483815        40.3767 
 224   0.0000       1.498363        40.7725 
 225   0.0000       1.531046        41.6619 
 226   0.0000       1.546368        42.0788 
 227   0.0000       1.549196        42.1558 
 228   0.0000       1.568684        42.6861 
 229   0.0000       1.589246        43.2456 
 230   0.0000       1.643179        44.7132 
 231   0.0000       1.667134        45.3650 
 232   0.0000       1.705298        46.4035 
 233   0.0000       1.706180        46.4275 
 234   0.0000       1.759784        47.8862 
 235   0.0000       1.763530        47.9881 
 236   0.0000       1.805348        49.1260 
 237   0.0000       1.823966        49.6326 
 238   0.0000       1.827364        49.7251 
 239   0.0000       1.833049        49.8798 
 240   0.0000       1.842569        50.1389 
 241   0.0000       1.849037        50.3149 
 242   0.0000       1.854887        50.4740 
 243   0.0000       1.863228        50.7010 
 244   0.0000       1.875781        51.0426 
 245   0.0000       1.885893        51.3177 
 246   0.0000       1.901503        51.7425 
 247   0.0000       1.919645        52.2362 
 248   0.0000       1.926110        52.4121 
 249   0.0000       1.948924        53.0329 
 250   0.0000       1.959085        53.3094 
 251   0.0000       1.969298        53.5873 
 252   0.0000       1.978104        53.8270 
 253   0.0000       1.992087        54.2075 
 254   0.0000       1.994837        54.2823 
 255   0.0000       2.006650        54.6037 
 256   0.0000       2.007423        54.6248 
 257   0.0000       2.018316        54.9212 
 258   0.0000       2.019505        54.9535 
 259   0.0000       2.025325        55.1119 
 260   0.0000       2.029302        55.2201 
 261   0.0000       2.039337        55.4932 
 262   0.0000       2.040125        55.5146 
 263   0.0000       2.051127        55.8140 
 264   0.0000       2.057798        55.9955 
 265   0.0000       2.081988        56.6538 
 266   0.0000       2.083958        56.7074 
 267   0.0000       2.084933        56.7339 
 268   0.0000       2.098504        57.1032 
 269   0.0000       2.114767        57.5457 
 270   0.0000       2.146503        58.4093 
 271   0.0000       2.146581        58.4114 
 272   0.0000       2.171875        59.0997 
 273   0.0000       2.174598        59.1738 
 274   0.0000       2.180420        59.3322 
 275   0.0000       2.182984        59.4020 
 276   0.0000       2.197536        59.7980 
 277   0.0000       2.215167        60.2778 
 278   0.0000       2.216518        60.3145 
 279   0.0000       2.222997        60.4908 
 280   0.0000       2.231720        60.7282 
 281   0.0000       2.260840        61.5206 
 282   0.0000       2.265366        61.6438 
 283   0.0000       2.268972        61.7419 
 284   0.0000       2.270071        61.7718 
 285   0.0000       2.283513        62.1376 
 286   0.0000       2.290167        62.3186 
 287   0.0000       2.325798        63.2882 
 288   0.0000       2.326648        63.3113 
 289   0.0000       2.355309        64.0912 
 290   0.0000       2.357565        64.1526 
 291   0.0000       2.358864        64.1880 
 292   0.0000       2.362801        64.2951 
 293   0.0000       2.379629        64.7530 
 294   0.0000       2.380314        64.7716 
 295   0.0000       2.402596        65.3780 
 296   0.0000       2.413770        65.6820 
 297   0.0000       2.423509        65.9470 
 298   0.0000       2.426977        66.0414 
 299   0.0000       2.434099        66.2352 
 300   0.0000       2.439559        66.3838 
 301   0.0000       2.443562        66.4927 
 302   0.0000       2.453664        66.7676 
 303   0.0000       2.477620        67.4195 
 304   0.0000       2.494712        67.8846 
 305   0.0000       2.520224        68.5788 
 306   0.0000       2.524479        68.6946 
 307   0.0000       2.529400        68.8285 
 308   0.0000       2.561231        69.6946 
 309   0.0000       2.582194        70.2651 
 310   0.0000       2.592313        70.5404 
 311   0.0000       2.605605        70.9021 
 312   0.0000       2.613002        71.1034 
 313   0.0000       2.619588        71.2826 
 314   0.0000       2.638597        71.7999 
 315   0.0000       2.653290        72.1997 
 316   0.0000       2.654561        72.2343 
 317   0.0000       2.664242        72.4977 
 318   0.0000       2.667946        72.5985 
 319   0.0000       2.674279        72.7708 
 320   0.0000       2.684174        73.0401 
 321   0.0000       2.700458        73.4832 
 322   0.0000       2.715728        73.8987 
 323   0.0000       2.729444        74.2720 
 324   0.0000       2.740941        74.5848 
 325   0.0000       2.744183        74.6730 
 326   0.0000       2.759036        75.0772 
 327   0.0000       2.771154        75.4069 
 328   0.0000       2.779581        75.6362 
 329   0.0000       2.793617        76.0182 
 330   0.0000       2.829714        77.0004 
 331   0.0000       2.840974        77.3068 
 332   0.0000       2.850879        77.5764 
 333   0.0000       2.859120        77.8006 
 334   0.0000       2.859356        77.8070 
 335   0.0000       2.877438        78.2991 
 336   0.0000       2.877963        78.3134 
 337   0.0000       2.891774        78.6892 
 338   0.0000       2.900521        78.9272 
 339   0.0000       2.908861        79.1541 
 340   0.0000       2.915636        79.3385 
 341   0.0000       2.921892        79.5087 
 342   0.0000       2.924296        79.5741 
 343   0.0000       2.939208        79.9799 
 344   0.0000       2.943276        80.0906 
 345   0.0000       2.952112        80.3311 
 346   0.0000       2.957321        80.4728 
 347   0.0000       2.964618        80.6714 
 348   0.0000       2.973417        80.9108 
 349   0.0000       2.980421        81.1014 
 350   0.0000       2.985790        81.2475 
 351   0.0000       2.992114        81.4195 
 352   0.0000       3.002485        81.7018 
 353   0.0000       3.007596        81.8408 
 354   0.0000       3.016172        82.0742 
 355   0.0000       3.026711        82.3610 
 356   0.0000       3.028858        82.4194 
 357   0.0000       3.037380        82.6513 
 358   0.0000       3.052125        83.0525 
 359   0.0000       3.076172        83.7069 
 360   0.0000       3.079563        83.7992 
 361   0.0000       3.098078        84.3030 
 362   0.0000       3.101905        84.4071 
 363   0.0000       3.106085        84.5209 
 364   0.0000       3.111437        84.6665 
 365   0.0000       3.115038        84.7645 
 366   0.0000       3.122265        84.9611 
 367   0.0000       3.142995        85.5252 
 368   0.0000       3.153423        85.8090 
 369   0.0000       3.157977        85.9329 
 370   0.0000       3.170111        86.2631 
 371   0.0000       3.173912        86.3665 
 372   0.0000       3.191902        86.8561 
 373   0.0000       3.193335        86.8951 
 374   0.0000       3.204192        87.1905 
 375   0.0000       3.220123        87.6240 
 376   0.0000       3.228954        87.8643 
 377   0.0000       3.236542        88.0708 
 378   0.0000       3.242006        88.2195 
 379   0.0000       3.264233        88.8243 
 380   0.0000       3.283615        89.3517 
 381   0.0000       3.287887        89.4680 
 382   0.0000       3.298642        89.7606 
 383   0.0000       3.303211        89.8849 
 384   0.0000       3.313122        90.1546 
 385   0.0000       3.328153        90.5636 
 386   0.0000       3.329445        90.5988 
 387   0.0000       3.345581        91.0379 
 388   0.0000       3.347615        91.0932 
 389   0.0000       3.363146        91.5159 
 390   0.0000       3.372815        91.7790 
 391   0.0000       3.386289        92.1456 
 392   0.0000       3.402270        92.5805 
 393   0.0000       3.407254        92.7161 
 394   0.0000       3.421247        93.0969 
 395   0.0000       3.450540        93.8940 
 396   0.0000       3.466850        94.3378 
 397   0.0000       3.466897        94.3391 
 398   0.0000       3.487250        94.8929 
 399   0.0000       3.519017        95.7573 
 400   0.0000       3.548053        96.5474 
 401   0.0000       3.553292        96.6900 
 402   0.0000       3.566385        97.0463 
 403   0.0000       3.572236        97.2055 
 404   0.0000       3.593897        97.7949 
 405   0.0000       3.602308        98.0238 
 406   0.0000       3.613660        98.3327 
 407   0.0000       3.616737        98.4164 
 408   0.0000       3.651310        99.3572 
 409   0.0000       3.659615        99.5832 
 410   0.0000       3.672324        99.9290 
 411   0.0000       3.680366       100.1479 
 412   0.0000       3.696594       100.5894 
 413   0.0000       3.700710       100.7014 
 414   0.0000       3.702593       100.7527 
 415   0.0000       3.716530       101.1319 
 416   0.0000       3.732454       101.5652 
 417   0.0000       3.733570       101.5956 
 418   0.0000       3.735457       101.6469 
 419   0.0000       3.737655       101.7068 
 420   0.0000       3.755212       102.1845 
 421   0.0000       3.768337       102.5417 
 422   0.0000       3.769659       102.5776 
 423   0.0000       3.772866       102.6649 
 424   0.0000       3.798848       103.3719 
 425   0.0000       3.808403       103.6319 
 426   0.0000       3.821009       103.9750 
 427   0.0000       3.826226       104.1169 
 428   0.0000       3.835514       104.3696 
 429   0.0000       3.853447       104.8576 
 430   0.0000       3.871094       105.3378 
 431   0.0000       3.892927       105.9319 
 432   0.0000       3.915420       106.5440 
 433   0.0000       3.924459       106.7900 
 434   0.0000       3.934332       107.0586 
 435   0.0000       3.949682       107.4763 
 436   0.0000       3.949794       107.4794 
 437   0.0000       3.991142       108.6045 
 438   0.0000       3.994853       108.7055 
 439   0.0000       4.003705       108.9463 
 440   0.0000       4.010747       109.1380 
 441   0.0000       4.030718       109.6814 
 442   0.0000       4.036074       109.8271 
 443   0.0000       4.067958       110.6948 
 444   0.0000       4.080909       111.0472 
 445   0.0000       4.092551       111.3640 
 446   0.0000       4.096305       111.4661 
 447   0.0000       4.107201       111.7626 
 448   0.0000       4.110099       111.8415 
 449   0.0000       4.117030       112.0301 
 450   0.0000       4.138012       112.6010 
 451   0.0000       4.138205       112.6063 
 452   0.0000       4.153256       113.0158 
 453   0.0000       4.166640       113.3800 
 454   0.0000       4.191328       114.0518 
 455   0.0000       4.209948       114.5585 
 456   0.0000       4.214863       114.6923 
 457   0.0000       4.234438       115.2249 
 458   0.0000       4.241157       115.4077 
 459   0.0000       4.247334       115.5758 
 460   0.0000       4.250666       115.6665 
 461   0.0000       4.251992       115.7026 
 462   0.0000       4.266884       116.1078 
 463   0.0000       4.272291       116.2549 
 464   0.0000       4.278959       116.4364 
 465   0.0000       4.302923       117.0885 
 466   0.0000       4.317343       117.4809 
 467   0.0000       4.326968       117.7428 
 468   0.0000       4.339038       118.0712 
 469   0.0000       4.359310       118.6229 
 470   0.0000       4.374315       119.0312 
 471   0.0000       4.409106       119.9779 
 472   0.0000       4.428010       120.4923 
 473   0.0000       4.443622       120.9171 
 474   0.0000       4.504925       122.5852 
 475   0.0000       4.517708       122.9331 
 476   0.0000       4.600111       125.1754 
 477   0.0000       4.632643       126.0606 
 478   0.0000       4.637029       126.1800 
 479   0.0000       4.638717       126.2259 
 480   0.0000       4.646747       126.4444 
 481   0.0000       4.662823       126.8819 
 482   0.0000       4.663019       126.8872 
 483   0.0000       4.677417       127.2790 
 484   0.0000       4.700164       127.8980 
 485   0.0000       4.712842       128.2429 
 486   0.0000       4.763141       129.6117 
 487   0.0000       4.808144       130.8363 
 488   0.0000       4.809470       130.8723 
 489   0.0000       4.816877       131.0739 
 490   0.0000       4.827003       131.3494 
 491   0.0000       4.837878       131.6453 
 492   0.0000       4.842630       131.7747 
 493   0.0000       4.862589       132.3178 
 494   0.0000       4.886938       132.9804 
 495   0.0000       4.908701       133.5725 
 496   0.0000       4.917323       133.8072 
 497   0.0000       4.936684       134.3340 
 498   0.0000       5.014412       136.4491 
 499   0.0000       5.031575       136.9161 
 500   0.0000       5.036818       137.0588 
 501   0.0000       5.062382       137.7544 
 502   0.0000       5.064981       137.8252 
 503   0.0000       5.093368       138.5976 
 504   0.0000       5.132931       139.6742 
 505   0.0000       5.185506       141.1048 
 506   0.0000       5.221005       142.0708 
 507   0.0000       5.297964       144.1649 
 508   0.0000       5.356748       145.7645 
 509   0.0000       5.380292       146.4052 
 510   0.0000       5.428349       147.7129 
 511   0.0000       5.439045       148.0039 
 512   0.0000       5.520703       150.2260 
 513   0.0000       5.558169       151.2455 
 514   0.0000       5.651011       153.7718 
 515   0.0000       5.679585       154.5494 
 516   0.0000       5.760711       156.7569 
 517   0.0000       5.832281       158.7044 
 518   0.0000       5.873341       159.8217 
 519   0.0000       5.900902       160.5717 
 520   0.0000       5.930340       161.3727 
 521   0.0000       5.950228       161.9139 
 522   0.0000       5.964161       162.2931 
 523   0.0000       6.016234       163.7101 
 524   0.0000       6.147632       167.2856 
 525   0.0000       6.218172       169.2051 
 526   0.0000       6.527377       177.6189 
 527   0.0000       6.638127       180.6326 
 528   0.0000       8.376042       227.9237 
 529   0.0000       9.008838       245.1430 
 530   0.0000      11.761558       320.0483 
 531   0.0000      11.942354       324.9680 
 532   0.0000      12.377279       336.8029 
 533   0.0000      12.599992       342.8632 
 534   0.0000      12.781868       347.8123 
 535   0.0000      12.811202       348.6105 
 536   0.0000      13.002968       353.8288 
 537   0.0000      13.486681       366.9912 
 538   0.0000      15.098596       410.8537 
 539   0.0000      15.177178       412.9920 

                    ********************************
                    * MULLIKEN POPULATION ANALYSIS *
                    ********************************

-----------------------
MULLIKEN ATOMIC CHARGES
-----------------------
   0 C :   -0.075635
   1 C :   -0.108917
   2 C :    0.080679
   3 C :   -0.131343
   4 C :    0.073111
   5 C :   -0.115251
   6 H :    0.093612
   7 H :    0.101851
   8 H :    0.100859
   9 H :    0.094356
  10 C :    0.073711
  11 C :   -0.131143
  12 C :   -0.115515
  13 C :    0.080372
  14 H :    0.100849
  15 C :   -0.075959
  16 H :    0.094250
  17 C :   -0.108656
  18 H :    0.093571
  19 H :    0.102000
  20 Cl:   -0.113409
  21 Cl:   -0.113392
Sum of atomic charges:    0.0000000

--------------------------------
MULLIKEN REDUCED ORBITAL CHARGES
--------------------------------
  0 C s       :     3.228031  s :     3.228031
      pz      :     0.940873  p :     2.764762
      px      :     0.895202
      py      :     0.928687
      dz2     :     0.006240  d :     0.074057
      dxz     :     0.014352
      dyz     :     0.013718
      dx2y2   :     0.018345
      dxy     :     0.021402
      f0      :     0.000985  f :     0.008785
      f+1     :     0.001182
      f-1     :     0.000407
      f+2     :     0.000949
      f-2     :     0.001160
      f+3     :     0.001301
      f-3     :     0.002802
  1 C s       :     3.254223  s :     3.254223
      pz      :     0.953779  p :     2.766755
      px      :     0.902598
      py      :     0.910378
      dz2     :     0.012058  d :     0.079014
      dxz     :     0.012807
      dyz     :     0.010266
      dx2y2   :     0.015926
      dxy     :     0.027958
      f0      :     0.000662  f :     0.008925
      f+1     :     0.001269
      f-1     :     0.000928
      f+2     :     0.001158
      f-2     :     0.001012
      f+3     :     0.001387
      f-3     :     0.002508
  2 C s       :     3.212244  s :     3.212244
      pz      :     0.951364  p :     2.550376
      px      :     0.714936
      py      :     0.884077
      dz2     :     0.012825  d :     0.144989
      dxz     :     0.025298
      dyz     :     0.024895
      dx2y2   :     0.045952
      dxy     :     0.036019
      f0      :     0.001336  f :     0.011712
      f+1     :     0.001302
      f-1     :     0.001090
      f+2     :     0.001428
      f-2     :     0.001487
      f+3     :     0.001640
      f-3     :     0.003429
  3 C s       :     3.281609  s :     3.281609
      pz      :     0.980818  p :     2.761351
      px      :     0.879812
      py      :     0.900721
      dz2     :     0.006966  d :     0.079263
      dxz     :     0.014362
      dyz     :     0.015189
      dx2y2   :     0.017626
      dxy     :     0.025120
      f0      :     0.001025  f :     0.009119
      f+1     :     0.001180
      f-1     :     0.000422
      f+2     :     0.000907
      f-2     :     0.001189
      f+3     :     0.001444
      f-3     :     0.002951
  4 C s       :     3.155538  s :     3.155538
      pz      :     0.931815  p :     2.667082
      px      :     0.865192
      py      :     0.870075
      dz2     :     0.011285  d :     0.093212
      dxz     :     0.017323
      dyz     :     0.017520
      dx2y2   :     0.023396
      dxy     :     0.023687
      f0      :     0.000977  f :     0.011057
      f+1     :     0.001386
      f-1     :     0.001199
      f+2     :     0.001265
      f-2     :     0.001357
      f+3     :     0.001650
      f-3     :     0.003224
  5 C s       :     3.251725  s :     3.251725
      pz      :     0.978225  p :     2.780011
      px      :     0.946541
      py      :     0.855246
      dz2     :     0.006760  d :     0.074580
      dxz     :     0.008744
      dyz     :     0.018664
      dx2y2   :     0.027136
      dxy     :     0.013276
      f0      :     0.000971  f :     0.008935
      f+1     :     0.000538
      f-1     :     0.001018
      f+2     :     0.000807
      f-2     :     0.001258
      f+3     :     0.001341
      f-3     :     0.003002
  6 H s       :     0.870551  s :     0.870551
      pz      :     0.012518  p :     0.033101
      px      :     0.010395
      py      :     0.010188
      dz2     :     0.000309  d :     0.002736
      dxz     :     0.000300
      dyz     :     0.000531
      dx2y2   :     0.000979
      dxy     :     0.000616
  7 H s       :     0.862317  s :     0.862317
      pz      :     0.012610  p :     0.033005
      px      :     0.010442
      py      :     0.009952
      dz2     :     0.000125  d :     0.002828
      dxz     :     0.000270
      dyz     :     0.000716
      dx2y2   :     0.001142
      dxy     :     0.000575
  8 H s       :     0.862328  s :     0.862328
      pz      :     0.012284  p :     0.033899
      px      :     0.011462
      py      :     0.010153
      dz2     :     0.000330  d :     0.002914
      dxz     :     0.000325
      dyz     :     0.000545
      dx2y2   :     0.001141
      dxy     :     0.000573
  9 H s       :     0.868722  s :     0.868722
      pz      :     0.012460  p :     0.034122
      px      :     0.010249
      py      :     0.011413
      dz2     :     0.000307  d :     0.002799
      dxz     :     0.000692
      dyz     :     0.000167
      dx2y2   :     0.000374
      dxy     :     0.001260
 10 C s       :     3.155887  s :     3.155887
      pz      :     0.871319  p :     2.666050
      px      :     0.911069
      py      :     0.883662
      dz2     :     0.022302  d :     0.093293
      dxz     :     0.018040
      dyz     :     0.020070
      dx2y2   :     0.017520
      dxy     :     0.015361
      f0      :     0.002202  f :     0.011059
      f+1     :     0.001194
      f-1     :     0.001407
      f+2     :     0.001542
      f-2     :     0.002158
      f+3     :     0.001235
      f-3     :     0.001320
 11 C s       :     3.281363  s :     3.281363
      pz      :     0.929185  p :     2.761330
      px      :     0.940545
      py      :     0.891601
      dz2     :     0.014557  d :     0.079330
      dxz     :     0.008870
      dyz     :     0.025864
      dx2y2   :     0.018094
      dxy     :     0.011945
      f0      :     0.001742  f :     0.009118
      f+1     :     0.000944
      f-1     :     0.001089
      f+2     :     0.001118
      f-2     :     0.001709
      f+3     :     0.000854
      f-3     :     0.001663
 12 C s       :     3.251987  s :     3.251987
      pz      :     0.922826  p :     2.779880
      px      :     0.964444
      py      :     0.892611
      dz2     :     0.013652  d :     0.074711
      dxz     :     0.017039
      dyz     :     0.017009
      dx2y2   :     0.015073
      dxy     :     0.011939
      f0      :     0.001775  f :     0.008937
      f+1     :     0.000799
      f-1     :     0.001156
      f+2     :     0.000934
      f-2     :     0.001880
      f+3     :     0.000804
      f-3     :     0.001590
 13 C s       :     3.212433  s :     3.212433
      pz      :     0.771247  p :     2.550444
      px      :     0.893312
      py      :     0.885885
      dz2     :     0.034068  d :     0.145037
      dxz     :     0.030863
      dyz     :     0.034578
      dx2y2   :     0.025484
      dxy     :     0.020044
      f0      :     0.002339  f :     0.011714
      f+1     :     0.001613
      f-1     :     0.001321
      f+2     :     0.001449
      f-2     :     0.002365
      f+3     :     0.000893
      f-3     :     0.001734
 14 H s       :     0.862336  s :     0.862336
      pz      :     0.010140  p :     0.033901
      px      :     0.012029
      py      :     0.011732
      dz2     :     0.000923  d :     0.002915
      dxz     :     0.000763
      dyz     :     0.000472
      dx2y2   :     0.000369
      dxy     :     0.000387
 15 C s       :     3.228254  s :     3.228254
      pz      :     0.930090  p :     2.764834
      px      :     0.919271
      py      :     0.915473
      dz2     :     0.013002  d :     0.074085
      dxz     :     0.008463
      dyz     :     0.025097
      dx2y2   :     0.017642
      dxy     :     0.009882
      f0      :     0.001721  f :     0.008786
      f+1     :     0.000925
      f-1     :     0.001051
      f+2     :     0.001166
      f-2     :     0.001551
      f+3     :     0.000782
      f-3     :     0.001591
 16 H s       :     0.868843  s :     0.868843
      pz      :     0.010841  p :     0.034109
      px      :     0.012254
      py      :     0.011014
      dz2     :     0.000909  d :     0.002799
      dxz     :     0.000419
      dyz     :     0.000728
      dx2y2   :     0.000316
      dxy     :     0.000427
 17 C s       :     3.254106  s :     3.254106
      pz      :     0.873398  p :     2.766585
      px      :     0.954788
      py      :     0.938398
      dz2     :     0.025734  d :     0.079042
      dxz     :     0.014360
      dyz     :     0.013054
      dx2y2   :     0.009880
      dxy     :     0.016014
      f0      :     0.002066  f :     0.008923
      f+1     :     0.001254
      f-1     :     0.001362
      f+2     :     0.001402
      f-2     :     0.001713
      f+3     :     0.000665
      f-3     :     0.000461
 18 H s       :     0.870605  s :     0.870605
      pz      :     0.010479  p :     0.033090
      px      :     0.011899
      py      :     0.010711
      dz2     :     0.000895  d :     0.002735
      dxz     :     0.000694
      dyz     :     0.000433
      dx2y2   :     0.000335
      dxy     :     0.000379
 19 H s       :     0.862176  s :     0.862176
      pz      :     0.011238  p :     0.032997
      px      :     0.011676
      py      :     0.010083
      dz2     :     0.000142  d :     0.002828
      dxz     :     0.000361
      dyz     :     0.001037
      dx2y2   :     0.000811
      dxy     :     0.000477
 20 Cls       :     5.920499  s :     5.920499
      pz      :     3.843870  p :    11.131944
      px      :     3.323111
      py      :     3.964964
      dz2     :     0.008434  d :     0.055972
      dxz     :     0.018637
      dyz     :     0.001600
      dx2y2   :     0.017289
      dxy     :     0.010010
      f0      :     0.000509  f :     0.004994
      f+1     :     0.000966
      f-1     :     0.000031
      f+2     :     0.001090
      f-2     :     0.000304
      f+3     :     0.001250
      f-3     :     0.000843
 21 Cls       :     5.920479  s :     5.920479
      pz      :     3.499721  p :    11.131947
      px      :     3.727990
      py      :     3.904236
      dz2     :     0.015139  d :     0.055972
      dxz     :     0.017725
      dyz     :     0.011283
      dx2y2   :     0.006948
      dxy     :     0.004877
      f0      :     0.000817  f :     0.004994
      f+1     :     0.001419
      f-1     :     0.000704
      f+2     :     0.000841
      f-2     :     0.000865
      f+3     :     0.000173
      f-3     :     0.000176


                     *******************************
                     * LOEWDIN POPULATION ANALYSIS *
                     *******************************

----------------------
LOEWDIN ATOMIC CHARGES
----------------------
   0 C :    0.040135
   1 C :    0.016494
   2 C :   -0.295866
   3 C :    0.029423
   4 C :   -0.031495
   5 C :    0.047224
   6 H :   -0.025434
   7 H :   -0.028580
   8 H :   -0.027817
   9 H :   -0.027465
  10 C :   -0.031478
  11 C :    0.029419
  12 C :    0.047221
  13 C :   -0.295900
  14 H :   -0.027814
  15 C :    0.040128
  16 H :   -0.027472
  17 C :    0.016497
  18 H :   -0.025434
  19 H :   -0.028577
  20 Cl:    0.303379
  21 Cl:    0.303411

-------------------------------
LOEWDIN REDUCED ORBITAL CHARGES
-------------------------------
  0 C s       :     2.699948  s :     2.699948
      pz      :     0.856140  p :     2.809476
      px      :     0.977654
      py      :     0.975681
      dz2     :     0.031226  d :     0.406444
      dxz     :     0.065437
      dyz     :     0.053410
      dx2y2   :     0.120062
      dxy     :     0.136309
      f0      :     0.003475  f :     0.043998
      f+1     :     0.004541
      f-1     :     0.002363
      f+2     :     0.006000
      f-2     :     0.005483
      f+3     :     0.008123
      f-3     :     0.014013
  1 C s       :     2.703007  s :     2.703007
      pz      :     0.876004  p :     2.833094
      px      :     0.987117
      py      :     0.969972
      dz2     :     0.047579  d :     0.402728
      dxz     :     0.061832
      dyz     :     0.044253
      dx2y2   :     0.107250
      dxy     :     0.141813
      f0      :     0.002700  f :     0.044677
      f+1     :     0.004132
      f-1     :     0.004557
      f+2     :     0.006813
      f-2     :     0.005754
      f+3     :     0.008535
      f-3     :     0.012186
  2 C s       :     2.751889  s :     2.751889
      pz      :     0.910730  p :     2.867070
      px      :     0.890612
      py      :     1.065727
      dz2     :     0.059665  d :     0.614360
      dxz     :     0.099519
      dyz     :     0.092722
      dx2y2   :     0.198288
      dxy     :     0.164166
      f0      :     0.004644  f :     0.062548
      f+1     :     0.005591
      f-1     :     0.005096
      f+2     :     0.007580
      f-2     :     0.009115
      f+3     :     0.010251
      f-3     :     0.020270
  3 C s       :     2.698837  s :     2.698837
      pz      :     0.872444  p :     2.825303
      px      :     0.979457
      py      :     0.973402
      dz2     :     0.032301  d :     0.401880
      dxz     :     0.062258
      dyz     :     0.053459
      dx2y2   :     0.114210
      dxy     :     0.139652
      f0      :     0.003709  f :     0.044557
      f+1     :     0.004571
      f-1     :     0.002606
      f+2     :     0.005863
      f-2     :     0.005693
      f+3     :     0.008612
      f-3     :     0.013502
  4 C s       :     2.687655  s :     2.687655
      pz      :     0.848507  p :     2.774292
      px      :     0.972730
      py      :     0.953054
      dz2     :     0.054461  d :     0.513605
      dxz     :     0.076864
      dyz     :     0.076607
      dx2y2   :     0.150002
      dxy     :     0.155671
      f0      :     0.003975  f :     0.055943
      f+1     :     0.004546
      f-1     :     0.005081
      f+2     :     0.007541
      f-2     :     0.007685
      f+3     :     0.009083
      f-3     :     0.018033
  5 C s       :     2.695956  s :     2.695956
      pz      :     0.866137  p :     2.813372
      px      :     0.957035
      py      :     0.990201
      dz2     :     0.030980  d :     0.399680
      dxz     :     0.034027
      dyz     :     0.079061
      dx2y2   :     0.148318
      dxy     :     0.107294
      f0      :     0.003461  f :     0.043767
      f+1     :     0.001947
      f-1     :     0.004902
      f+2     :     0.004038
      f-2     :     0.007214
      f+3     :     0.008190
      f-3     :     0.014016
  6 H s       :     0.839665  s :     0.839665
      pz      :     0.046413  p :     0.156489
      px      :     0.045145
      py      :     0.064931
      dz2     :     0.003652  d :     0.029280
      dxz     :     0.002720
      dyz     :     0.006738
      dx2y2   :     0.008202
      dxy     :     0.007968
  7 H s       :     0.840929  s :     0.840929
      pz      :     0.042914  p :     0.157810
      px      :     0.047469
      py      :     0.067427
      dz2     :     0.002764  d :     0.029842
      dxz     :     0.002361
      dyz     :     0.006572
      dx2y2   :     0.009293
      dxy     :     0.008852
  8 H s       :     0.838166  s :     0.838166
      pz      :     0.048244  p :     0.159339
      px      :     0.045143
      py      :     0.065952
      dz2     :     0.003778  d :     0.030312
      dxz     :     0.002931
      dyz     :     0.006919
      dx2y2   :     0.008403
      dxy     :     0.008282
  9 H s       :     0.838663  s :     0.838663
      pz      :     0.048072  p :     0.159033
      px      :     0.075122
      py      :     0.035838
      dz2     :     0.003638  d :     0.029769
      dxz     :     0.008638
      dyz     :     0.000977
      dx2y2   :     0.008046
      dxy     :     0.008471
 10 C s       :     2.687655  s :     2.687655
      pz      :     0.986709  p :     2.774272
      px      :     0.869782
      py      :     0.917781
      dz2     :     0.127459  d :     0.513608
      dxz     :     0.092735
      dyz     :     0.127544
      dx2y2   :     0.081137
      dxy     :     0.084732
      f0      :     0.011181  f :     0.055943
      f+1     :     0.006694
      f-1     :     0.008311
      f+2     :     0.008347
      f-2     :     0.010064
      f+3     :     0.005296
      f-3     :     0.006051
 11 C s       :     2.698835  s :     2.698835
      pz      :     0.962050  p :     2.825296
      px      :     0.906627
      py      :     0.956619
      dz2     :     0.085211  d :     0.401893
      dxz     :     0.054996
      dyz     :     0.115751
      dx2y2   :     0.074218
      dxy     :     0.071717
      f0      :     0.008172  f :     0.044557
      f+1     :     0.005533
      f-1     :     0.006406
      f+2     :     0.005324
      f-2     :     0.007076
      f+3     :     0.005380
      f-3     :     0.006666
 12 C s       :     2.695957  s :     2.695957
      pz      :     0.954394  p :     2.813367
      px      :     0.893931
      py      :     0.965041
      dz2     :     0.081625  d :     0.399687
      dxz     :     0.071473
      dyz     :     0.108327
      dx2y2   :     0.071497
      dxy     :     0.066766
      f0      :     0.008429  f :     0.043767
      f+1     :     0.004778
      f-1     :     0.006910
      f+2     :     0.005116
      f-2     :     0.007548
      f+3     :     0.004844
      f-3     :     0.006143
 13 C s       :     2.751887  s :     2.751887
      pz      :     0.930411  p :     2.867091
      px      :     0.912529
      py      :     1.024150
      dz2     :     0.144533  d :     0.614374
      dxz     :     0.126574
      dyz     :     0.152571
      dx2y2   :     0.099387
      dxy     :     0.091309
      f0      :     0.013303  f :     0.062548
      f+1     :     0.008276
      f-1     :     0.008947
      f+2     :     0.008339
      f-2     :     0.011093
      f+3     :     0.005616
      f-3     :     0.006974
 14 H s       :     0.838168  s :     0.838168
      pz      :     0.065987  p :     0.159334
      px      :     0.040867
      py      :     0.052481
      dz2     :     0.009146  d :     0.030312
      dxz     :     0.006155
      dyz     :     0.008898
      dx2y2   :     0.003027
      dxy     :     0.003085
 15 C s       :     2.699948  s :     2.699948
      pz      :     0.954702  p :     2.809478
      px      :     0.897450
      py      :     0.957326
      dz2     :     0.082168  d :     0.406448
      dxz     :     0.055878
      dyz     :     0.125751
      dx2y2   :     0.077083
      dxy     :     0.065568
      f0      :     0.008583  f :     0.043998
      f+1     :     0.005569
      f-1     :     0.006235
      f+2     :     0.005513
      f-2     :     0.007080
      f+3     :     0.004844
      f-3     :     0.006174
 16 H s       :     0.838670  s :     0.838670
      pz      :     0.064184  p :     0.159033
      px      :     0.054209
      py      :     0.040640
      dz2     :     0.008944  d :     0.029769
      dxz     :     0.007943
      dyz     :     0.006572
      dx2y2   :     0.003138
      dxy     :     0.003173
 17 C s       :     2.703011  s :     2.703011
      pz      :     0.985186  p :     2.833075
      px      :     0.901926
      py      :     0.945963
      dz2     :     0.124123  d :     0.402740
      dxz     :     0.078780
      dyz     :     0.097689
      dx2y2   :     0.039857
      dxy     :     0.062292
      f0      :     0.008683  f :     0.044677
      f+1     :     0.006431
      f-1     :     0.008484
      f+2     :     0.007642
      f-2     :     0.007868
      f+3     :     0.003824
      f-3     :     0.001745
 18 H s       :     0.839667  s :     0.839667
      pz      :     0.063860  p :     0.156486
      px      :     0.040637
      py      :     0.051989
      dz2     :     0.008661  d :     0.029280
      dxz     :     0.005696
      dyz     :     0.008694
      dx2y2   :     0.003125
      dxy     :     0.003105
 19 H s       :     0.840925  s :     0.840925
      pz      :     0.036256  p :     0.157810
      px      :     0.052039
      py      :     0.069515
      dz2     :     0.003109  d :     0.029842
      dxz     :     0.002387
      dyz     :     0.006933
      dx2y2   :     0.008840
      dxy     :     0.008574
 20 Cls       :     5.641785  s :     5.641785
      pz      :     3.777977  p :    10.945912
      px      :     3.309332
      py      :     3.858602
      dz2     :     0.013893  d :     0.097388
      dxz     :     0.031057
      dyz     :     0.002709
      dx2y2   :     0.030503
      dxy     :     0.019226
      f0      :     0.001080  f :     0.011536
      f+1     :     0.002240
      f-1     :     0.000049
      f+2     :     0.002457
      f-2     :     0.000737
      f+3     :     0.002702
      f-3     :     0.002271
 21 Cls       :     5.641768  s :     5.641768
      pz      :     3.462180  p :    10.945888
      px      :     3.672359
      py      :     3.811349
      dz2     :     0.026805  d :     0.097395
      dxz     :     0.030686
      dyz     :     0.019913
      dx2y2   :     0.011159
      dxy     :     0.008832
      f0      :     0.002062  f :     0.011538
      f+1     :     0.003113
      f-1     :     0.001576
      f+2     :     0.001967
      f-2     :     0.002039
      f+3     :     0.000381
      f-3     :     0.000400


                      *****************************
                      * MAYER POPULATION ANALYSIS *
                      *****************************

  NA   - Mulliken gross atomic population
  ZA   - Total nuclear charge
  QA   - Mulliken gross atomic charge
  VA   - Mayer's total valence
  BVA  - Mayer's bonded valence
  FA   - Mayer's free valence

  ATOM       NA         ZA         QA         VA         BVA        FA
  0 C      6.0756     6.0000    -0.0756     3.8172     3.8172    -0.0000
  1 C      6.1089     6.0000    -0.1089     3.8612     3.8612    -0.0000
  2 C      5.9193     6.0000     0.0807     3.7819     3.7819     0.0000
  3 C      6.1313     6.0000    -0.1313     3.8541     3.8541     0.0000
  4 C      5.9269     6.0000     0.0731     3.7950     3.7950     0.0000
  5 C      6.1153     6.0000    -0.1153     3.8618     3.8618     0.0000
  6 H      0.9064     1.0000     0.0936     0.9984     0.9984     0.0000
  7 H      0.8981     1.0000     0.1019     1.0114     1.0114     0.0000
  8 H      0.8991     1.0000     0.1009     1.0226     1.0226     0.0000
  9 H      0.9056     1.0000     0.0944     1.0112     1.0112     0.0000
 10 C      5.9263     6.0000     0.0737     3.7940     3.7940     0.0000
 11 C      6.1311     6.0000    -0.1311     3.8541     3.8541    -0.0000
 12 C      6.1155     6.0000    -0.1155     3.8622     3.8622     0.0000
 13 C      5.9196     6.0000     0.0804     3.7823     3.7823    -0.0000
 14 H      0.8992     1.0000     0.1008     1.0226     1.0226    -0.0000
 15 C      6.0760     6.0000    -0.0760     3.8177     3.8177    -0.0000
 16 H      0.9058     1.0000     0.0942     1.0112     1.0112     0.0000
 17 C      6.1087     6.0000    -0.1087     3.8610     3.8610    -0.0000
 18 H      0.9064     1.0000     0.0936     0.9984     0.9984     0.0000
 19 H      0.8980     1.0000     0.1020     1.0113     1.0113    -0.0000
 20 Cl    17.1134    17.0000    -0.1134     1.1827     1.1827     0.0000
 21 Cl    17.1134    17.0000    -0.1134     1.1827     1.1827    -0.0000

  Mayer bond orders larger than 0.100000
B(  0-C ,  1-C ) :   1.3462 B(  0-C ,  5-C ) :   1.3622 B(  0-C ,  6-H ) :   0.9769 
B(  1-C ,  2-C ) :   1.3306 B(  1-C ,  7-H ) :   0.9714 B(  2-C ,  3-C ) :   1.3213 
B(  2-C , 20-Cl) :   1.0053 B(  3-C ,  4-C ) :   1.3112 B(  3-C ,  8-H ) :   0.9706 
B(  4-C ,  5-C ) :   1.3246 B(  4-C , 10-C ) :   0.9997 B(  5-C ,  9-H ) :   0.9733 
B( 10-C , 11-C ) :   1.3109 B( 10-C , 12-C ) :   1.3245 B( 11-C , 13-C ) :   1.3216 
B( 11-C , 14-H ) :   0.9706 B( 12-C , 15-C ) :   1.3624 B( 12-C , 16-H ) :   0.9733 
B( 13-C , 17-C ) :   1.3306 B( 13-C , 21-Cl) :   1.0053 B( 15-C , 17-C ) :   1.3461 
B( 15-C , 18-H ) :   0.9769 B( 17-C , 19-H ) :   0.9714 

-------
TIMINGS
-------

Total SCF time: 0 days 0 hours 4 min 12 sec 

Total time                  ....     252.043 sec
Sum of individual times     ....     251.292 sec  ( 99.7%)

Fock matrix formation       ....     249.212 sec  ( 98.9%)
  XC integration            ....       5.758 sec  (  2.3% of F)
    Basis function eval.    ....       1.733 sec  ( 30.1% of XC)
    Density eval.           ....       1.477 sec  ( 25.7% of XC)
    XC-Functional eval.     ....       0.141 sec  (  2.4% of XC)
    XC-Potential eval.      ....       1.862 sec  ( 32.3% of XC)
Diagonalization             ....       0.324 sec  (  0.1%)
Density matrix formation    ....       0.033 sec  (  0.0%)
Population analysis         ....       0.054 sec  (  0.0%)
Initial guess               ....       0.376 sec  (  0.1%)
Orbital Transformation      ....       0.000 sec  (  0.0%)
Orbital Orthonormalization  ....       0.000 sec  (  0.0%)
DIIS solution               ....       0.167 sec  (  0.1%)
SOSCF solution              ....       0.426 sec  (  0.2%)
Grid generation             ....       0.700 sec  (  0.3%)

Maximum memory used throughout the entire SCF-calculation: 267.5 MB

-------------------------   --------------------
FINAL SINGLE POINT ENERGY     -1382.493627440163
-------------------------   --------------------


                            ***************************************
                            *     ORCA property calculations      *
                            ***************************************

                                    ---------------------
                                    Active property flags
                                    ---------------------
   (+) Dipole Moment


------------------------------------------------------------------------------
                       ORCA ELECTRIC PROPERTIES CALCULATION
------------------------------------------------------------------------------

Dipole Moment Calculation                       ... on
Quadrupole Moment Calculation                   ... off
Polarizability Calculation                      ... off
GBWName                                         ... 2,7-dicl-dibenzene.gbw
Electron density file                           ... 2,7-dicl-dibenzene.scfp
The origin for moment calculation is the CENTER OF MASS  = (-2.079645,  7.725980  1.172565)

-------------
DIPOLE MOMENT
-------------
                                X             Y             Z
Electronic contribution:      3.33467       1.92901       3.85135
Nuclear contribution   :     -3.59384      -2.07894      -4.15061
                        -----------------------------------------
Total Dipole Moment    :     -0.25917      -0.14992      -0.29925
                        -----------------------------------------
Magnitude (a.u.)       :      0.42332
Magnitude (Debye)      :      1.07599



--------------------
Rotational spectrum 
--------------------
 
Rotational constants in cm-1:     0.042977     0.007687     0.006936 
Rotational constants in MHz :  1288.420402   230.438753   207.945622 

 Dipole components along the rotational axes: 
x,y,z [a.u.] :     0.000008     0.000041    -0.423318 
x,y,z [Debye]:     0.000021     0.000104    -1.075990 

 
--------------------------------------------------------------------------
WARNING: There was an error initializing an OpenFabrics device.

  Local host:   cnode12
  Local device: mlx5_0
--------------------------------------------------------------------------
[cnode12:27997] 7 more processes have sent help message help-mpi-btl-openib.txt / error in device init
[cnode12:27997] Set MCA parameter "orte_base_help_aggregate" to 0 to see all help / error messages

Timings for individual modules:

Sum of individual times         ...      253.456 sec (=   4.224 min)
GTO integral calculation        ...        1.033 sec (=   0.017 min)   0.4 %
SCF iterations                  ...      252.423 sec (=   4.207 min)  99.6 %
                             ****ORCA TERMINATED NORMALLY****
TOTAL RUN TIME: 0 days 0 hours 4 minutes 14 seconds 54 msec

Sender: Unischeduler System <lcz@mgt01>
Subject: Job 127821: <#!/bin/bash
#BSUB -J intel
#BSUB -o 2,7-dicl-dibenzene.out
#BSUB -n 8
#BSUB -q cqueue
#BSUB -R span[hosts=1]
export LD_LIBRARY_PATH=/apps/software/openmpi-4.1.1/lib:/apps/software/orca_5_0_0:$LD_LIBRARY_PATH
export PATH=/apps/software/openmpi-4.1.1/bin:/apps/software/orca_5_0_0:$PATH
/apps/software/orca_5_0_0/orca 2,7-dicl-dibenzene.inp >& 2,7-dicl-dibenzene.out> Done

Job <#!/bin/bash
#BSUB -J intel
#BSUB -o 2,7-dicl-dibenzene.out
#BSUB -n 8
#BSUB -q cqueue
#BSUB -R span[hosts=1]
export LD_LIBRARY_PATH=/apps/software/openmpi-4.1.1/lib:/apps/software/orca_5_0_0:$LD_LIBRARY_PATH
export PATH=/apps/software/openmpi-4.1.1/bin:/apps/software/orca_5_0_0:$PATH
/apps/software/orca_5_0_0/orca 2,7-dicl-dibenzene.inp >& 2,7-dicl-dibenzene.out> was submitted from host <mgt01> by user <lcz>.
Job was executed on host(s) <8*cnode12>, in queue <cqueue>, as user <lcz>.
</apps/users/lcz> was used as the home directory.
</apps/users/lcz/task2/section2/isomer1/BLYP_cc-pVTZ/ORCA> was used as the working directory.
Started at 2022-05-04 14:46:31
Results reported at 2022-05-04 14:50:45

Your job looked like:

------------------------------------------------------------
# User input
#!/bin/bash
#BSUB -J intel
#BSUB -o 2,7-dicl-dibenzene.out
#BSUB -n 8
#BSUB -q cqueue
#BSUB -R span[hosts=1]
export LD_LIBRARY_PATH=/apps/software/openmpi-4.1.1/lib:/apps/software/orca_5_0_0:$LD_LIBRARY_PATH
export PATH=/apps/software/openmpi-4.1.1/bin:/apps/software/orca_5_0_0:$PATH
/apps/software/orca_5_0_0/orca 2,7-dicl-dibenzene.inp >& 2,7-dicl-dibenzene.out
------------------------------------------------------------

Successfully completed.

Resource usage summary:

    CPU time   :         2018.83 sec.
    Max Memory :              1681 MB
    Max Processes  :              13


The output (if any) follows:

