
                                        *****************
                                        * O   R   C   A *
                                        *****************

                                            #,                                       
                                            ###                                      
                                            ####                                     
                                            #####                                    
                                            ######                                   
                                           ########,                                 
                                     ,,################,,,,,                         
                               ,,#################################,,                 
                          ,,##########################################,,             
                       ,#########################################, ''#####,          
                    ,#############################################,,   '####,        
                  ,##################################################,,,,####,       
                ,###########''''           ''''###############################       
              ,#####''   ,,,,##########,,,,          '''####'''          '####       
            ,##' ,,,,###########################,,,                        '##       
           ' ,,###''''                  '''############,,,                           
         ,,##''                                '''############,,,,        ,,,,,,###''
      ,#''                                            '''#######################'''  
     '                                                          ''''####''''         
             ,#######,   #######,   ,#######,      ##                                
            ,#'     '#,  ##    ##  ,#'     '#,    #''#        ######   ,####,        
            ##       ##  ##   ,#'  ##            #'  '#       #        #'  '#        
            ##       ##  #######   ##           ,######,      #####,   #    #        
            '#,     ,#'  ##    ##  '#,     ,#' ,#      #,         ##   #,  ,#        
             '#######'   ##     ##  '#######'  #'      '#     #####' # '####'        



                  #######################################################
                  #                        -***-                        #
                  #          Department of theory and spectroscopy      #
                  #    Directorship and core code : Frank Neese         #
                  #        Max Planck Institute fuer Kohlenforschung    #
                  #                Kaiser Wilhelm Platz 1               #
                  #                 D-45470 Muelheim/Ruhr               #
                  #                      Germany                        #
                  #                                                     #
                  #                  All rights reserved                #
                  #                        -***-                        #
                  #######################################################


                         Program Version 5.0.0 -  RELEASE  -
                                (SVN: $Rev: 19529$)
                ($Date: 2021-06-28 11:36:33 +0200 (Mo, 28 Jun 2021) $)


 With contributions from (in alphabetic order):
   Daniel Aravena         : Magnetic Suceptibility
   Michael Atanasov       : Ab Initio Ligand Field Theory (pilot matlab implementation)
   Alexander A. Auer      : GIAO ZORA, VPT2 properties, NMR spectrum
   Ute Becker             : Parallelization
   Giovanni Bistoni       : ED, misc. LED, open-shell LED, HFLD
   Martin Brehm           : Molecular dynamics
   Dmytro Bykov           : SCF Hessian
   Vijay G. Chilkuri      : MRCI spin determinant printing, contributions to CSF-ICE
   Dipayan Datta          : RHF DLPNO-CCSD density
   Achintya Kumar Dutta   : EOM-CC, STEOM-CC
   Dmitry Ganyushin       : Spin-Orbit,Spin-Spin,Magnetic field MRCI
   Miquel Garcia          : C-PCM Hessian, Gaussian charge scheme
   Yang Guo               : DLPNO-NEVPT2, F12-NEVPT2, CIM, IAO-localization
   Andreas Hansen         : Spin unrestricted coupled pair/coupled cluster methods
   Benjamin Helmich-Paris : MC-RPA, TRAH-SCF, COSX integrals
   Lee Huntington         : MR-EOM, pCC
   Robert Izsak           : Overlap fitted RIJCOSX, COSX-SCS-MP3, EOM
   Marcus Kettner         : VPT2
   Christian Kollmar      : KDIIS, OOCD, Brueckner-CCSD(T), CCSD density, CASPT2, CASPT2-K
   Simone Kossmann        : Meta GGA functionals, TD-DFT gradient, OOMP2, MP2 Hessian
   Martin Krupicka        : Initial AUTO-CI
   Lucas Lang             : DCDCAS
   Marvin Lechner         : AUTO-CI (C++ implementation), FIC-MRCC
   Dagmar Lenk            : GEPOL surface, SMD
   Dimitrios Liakos       : Extrapolation schemes; Compound Job, initial MDCI parallelization
   Dimitrios Manganas     : Further ROCIS development; embedding schemes
   Dimitrios Pantazis     : SARC Basis sets
   Anastasios Papadopoulos: AUTO-CI, single reference methods and gradients
   Taras Petrenko         : DFT Hessian,TD-DFT gradient, ASA, ECA, R-Raman, ABS, FL, XAS/XES, NRVS
   Peter Pinski           : DLPNO-MP2, DLPNO-MP2 Gradient
   Christoph Reimann      : Effective Core Potentials
   Marius Retegan         : Local ZFS, SOC
   Christoph Riplinger    : Optimizer, TS searches, QM/MM, DLPNO-CCSD(T), (RO)-DLPNO pert. Triples
   Tobias Risthaus        : Range-separated hybrids, TD-DFT gradient, RPA, STAB
   Michael Roemelt        : Original ROCIS implementation
   Masaaki Saitow         : Open-shell DLPNO-CCSD energy and density
   Barbara Sandhoefer     : DKH picture change effects
   Avijit Sen             : IP-ROCIS
   Kantharuban Sivalingam : CASSCF convergence, NEVPT2, FIC-MRCI
   Bernardo de Souza      : ESD, SOC TD-DFT
   Georgi Stoychev        : AutoAux, RI-MP2 NMR
   Willem Van den Heuvel  : Paramagnetic NMR
   Boris Wezisla          : Elementary symmetry handling
   Frank Wennmohs         : Technical directorship


 We gratefully acknowledge several colleagues who have allowed us to
 interface, adapt or use parts of their codes:
   Stefan Grimme, W. Hujo, H. Kruse, P. Pracht,  : VdW corrections, initial TS optimization,
                  C. Bannwarth, S. Ehlert          DFT functionals, gCP, sTDA/sTD-DF
   Ed Valeev, F. Pavosevic, A. Kumar             : LibInt (2-el integral package), F12 methods
   Garnet Chan, S. Sharma, J. Yang, R. Olivares  : DMRG
   Ulf Ekstrom                                   : XCFun DFT Library
   Mihaly Kallay                                 : mrcc  (arbitrary order and MRCC methods)
   Jiri Pittner, Ondrej Demel                    : Mk-CCSD
   Frank Weinhold                                : gennbo (NPA and NBO analysis)
   Christopher J. Cramer and Donald G. Truhlar   : smd solvation model
   Lars Goerigk                                  : TD-DFT with DH, B97 family of functionals
   V. Asgeirsson, H. Jonsson                     : NEB implementation
   FAccTs GmbH                                   : IRC, NEB, NEB-TS, DLPNO-Multilevel, CI-OPT
                                                   MM, QMMM, 2- and 3-layer-ONIOM, Crystal-QMMM,
                                                   LR-CPCM, SF, NACMEs, symmetry and pop. for TD-DFT,
                                                   nearIR, NL-DFT gradient (VV10), updates on ESD,
                                                   ML-optimized integration grids
   S Lehtola, MJT Oliveira, MAL Marques          : LibXC Library
   Liviu Ungur et al                             : ANISO software


 Your calculation uses the libint2 library for the computation of 2-el integrals
 For citations please refer to: http://libint.valeyev.net

 Your ORCA version has been built with support for libXC version: 5.1.0
 For citations please refer to: https://tddft.org/programs/libxc/

 This ORCA versions uses:
   CBLAS   interface :  Fast vector & matrix operations
   LAPACKE interface :  Fast linear algebra routines
   SCALAPACK package :  Parallel linear algebra routines
   Shared memory     :  Shared parallel matrices
   BLAS/LAPACK       :  OpenBLAS 0.3.15  USE64BITINT DYNAMIC_ARCH NO_AFFINITY SkylakeX SINGLE_THREADED
        Core in use  :  SkylakeX
   Copyright (c) 2011-2014, The OpenBLAS Project


================================================================================

----- Orbital basis set information -----
Your calculation utilizes the basis: cc-pVDZ 
       H, B-Ne : Obtained from the ccRepo (grant-hill.group.shef.ac.uk/ccrepo) Feb. 2017
                 T. H. Dunning, Jr., J. Chem. Phys. 90, 1007 (1989)
            He : Obtained from the ccRepo (grant-hill.group.shef.ac.uk/ccrepo) Feb. 2017
                 D. E. Woon, T. H. Dunning, Jr., J. Chem. Phys. 100, 2975 (1994)
  Li-Be, Na-Mg : Obtained from the ccRepo (grant-hill.group.shef.ac.uk/ccrepo) Feb. 2017
                 B. P. Prascher, D. E. Woon, K. A. Peterson, T. H. Dunning, Jr., A. K. Wilson, Theor. Chem. Acc. 128, 69 (2011)
         Al-Ar : Obtained from the ccRepo (grant-hill.group.shef.ac.uk/ccrepo) Feb. 2017
                 D. E. Woon, T. H. Dunning, Jr., J. Chem. Phys. 98, 1358 (1993)
            Ca : Obtained from the Peterson Research Group Website (tyr0.chem.wsu.edu/~kipeters) Feb. 2017
                 J. Koput, K. A. Peterson, J. Phys. Chem. 106, 9595 (2002)
         Sc-Zn : Obtained from the ccRepo (grant-hill.group.shef.ac.uk/ccrepo) Feb. 2017
                 N. B. Balabanov, K. A. Peterson, J. Chem. Phys. 123, 064107 (2005)
                 N. B. Balabanov, K. A. Peterson, J. Chem. Phys. 125, 074110 (2006)
         Ga-Kr : Obtained from the ccRepo (grant-hill.group.shef.ac.uk/ccrepo) Feb. 2017
                 A. K. Wilson, D. E. Woon, K. A. Peterson, T. H. Dunning, Jr., J. Chem. Phys. 110, 7667 (1999)

================================================================================
                                        WARNINGS
                       Please study these warnings very carefully!
================================================================================


INFO   : the flag for use of the SHARK integral package has been found!

================================================================================
                                       INPUT FILE
================================================================================
NAME = 2,7-dicl-dibenzene.inp
|  1> ! BLYP cc-pVDZ NoRI pal8            
|  2> 
|  3> *xyz 0 1
|  4>   C   -0.84533195991773      0.95631204799741      0.86695688758137
|  5>   C   0.46296917953950      0.89055132107898      0.41153738968092
|  6>   C   1.06498249109929      2.05041746604826     -0.04872626223504
|  7>   C   0.38682375533153      3.25825741761093     -0.05957630313133
|  8>   C   -0.92916629483352      3.32496446678289      0.39786117470048
|  9>   C   -1.53691904595740      2.15806885302784      0.86178357772044
| 10>   H   -1.33177779310003      0.05786162666320      1.22288286662819
| 11>   H   1.00911644617855     -0.04137764481499      0.41174217012473
| 12>   H   0.89340943637666      4.14652768979640     -0.40661874558071
| 13>   H   -2.56260459262502      2.18503471734340      1.20271069002731
| 14>   C   -1.66709331376272      4.62322731007777      0.38662794093699
| 15>   C   -2.42161858132883      5.01473379007752      1.49250102782185
| 16>   C   -1.61923201631221      5.46623475990715     -0.72389685760276
| 17>   C   -3.10577169358506      6.21908872396761      1.47479389475736
| 18>   H   -2.46369194088787      4.39499072034369      2.37581764658229
| 19>   C   -2.30901947987771      6.66904435935388     -0.72694800403690
| 20>   H   -1.05555752795261      5.17208444276276     -1.59838613456934
| 21>   C   -3.05941590604282      7.05751618377553      0.37275066068088
| 22>   H   -2.26865845182014      7.30948735218955     -1.59800079723894
| 23>   H   -3.60007805771479      7.99261925989212      0.37887337421372
| 24>   Cl  2.70997882629083      1.99495162290832     -0.61716762133114
| 25>   Cl  -4.03387825909787      6.68923511320967      2.87110846426962
| 26> **                         ****END OF INPUT****
================================================================================

                       ****************************
                       * Single Point Calculation *
                       ****************************

---------------------------------
CARTESIAN COORDINATES (ANGSTROEM)
---------------------------------
  C     -0.845332    0.956312    0.866957
  C      0.462969    0.890551    0.411537
  C      1.064982    2.050417   -0.048726
  C      0.386824    3.258257   -0.059576
  C     -0.929166    3.324964    0.397861
  C     -1.536919    2.158069    0.861784
  H     -1.331778    0.057862    1.222883
  H      1.009116   -0.041378    0.411742
  H      0.893409    4.146528   -0.406619
  H     -2.562605    2.185035    1.202711
  C     -1.667093    4.623227    0.386628
  C     -2.421619    5.014734    1.492501
  C     -1.619232    5.466235   -0.723897
  C     -3.105772    6.219089    1.474794
  H     -2.463692    4.394991    2.375818
  C     -2.309019    6.669044   -0.726948
  H     -1.055558    5.172084   -1.598386
  C     -3.059416    7.057516    0.372751
  H     -2.268658    7.309487   -1.598001
  H     -3.600078    7.992619    0.378873
  Cl     2.709979    1.994952   -0.617168
  Cl    -4.033878    6.689235    2.871108

----------------------------
CARTESIAN COORDINATES (A.U.)
----------------------------
  NO LB      ZA    FRAG     MASS         X           Y           Z
   0 C     6.0000    0    12.011   -1.597446    1.807168    1.638311
   1 C     6.0000    0    12.011    0.874885    1.682898    0.777693
   2 C     6.0000    0    12.011    2.012525    3.874727   -0.092079
   3 C     6.0000    0    12.011    0.730991    6.157214   -0.112583
   4 C     6.0000    0    12.011   -1.755870    6.283272    0.751849
   5 C     6.0000    0    12.011   -2.904356    4.078159    1.628535
   6 H     1.0000    0     1.008   -2.516695    0.109343    2.310914
   7 H     1.0000    0     1.008    1.906954   -0.078192    0.778080
   8 H     1.0000    0     1.008    1.688299    7.835802   -0.768398
   9 H     1.0000    0     1.008   -4.842621    4.129117    2.272794
  10 C     6.0000    0    12.011   -3.150350    8.736633    0.730621
  11 C     6.0000    0    12.011   -4.576196    9.476473    2.820418
  12 C     6.0000    0    12.011   -3.059905   10.329687   -1.367967
  13 C     6.0000    0    12.011   -5.869058   11.752374    2.786957
  14 H     1.0000    0     1.008   -4.655703    8.305329    4.489645
  15 C     6.0000    0    12.011   -4.363414   12.602667   -1.373733
  16 H     1.0000    0     1.008   -1.994715    9.773823   -3.020512
  17 C     6.0000    0    12.011   -5.781458   13.336773    0.704397
  18 H     1.0000    0     1.008   -4.287143   13.812929   -3.019784
  19 H     1.0000    0     1.008   -6.803162   15.103861    0.715967
  20 Cl   17.0000    0    35.453    5.121118    3.769912   -1.166278
  21 Cl   17.0000    0    35.453   -7.622925   12.640822    5.425609

--------------------------------
INTERNAL COORDINATES (ANGSTROEM)
--------------------------------
 C      0   0   0     0.000000000000     0.00000000     0.00000000
 C      1   0   0     1.386860938875     0.00000000     0.00000000
 C      2   1   0     1.385479025758   118.63952714     0.00000000
 C      3   2   1     1.385241618952   121.32071476     0.00000000
 C      4   3   2     1.394822099290   120.06766846   359.96103452
 C      1   2   3     1.386556482495   120.69038160     0.00000000
 H      1   2   3     1.081908503884   119.52502475   179.56072184
 H      2   1   3     1.080170577393   121.18603541   180.01212109
 H      4   3   2     1.079857206092   119.34652679   178.77523602
 H      6   1   2     1.081198082863   119.57822093   178.80183793
 C      5   4   3     1.493368300550   120.35248133   180.11475760
 C     11   5   4     1.394826508055   120.35463753   224.79175713
 C     11   5   4     1.395069027838   120.95497549    44.87155408
 C     12  11   5     1.385225552160   120.07080458   180.11861286
 H     12  11   5     1.079861050805   120.56554825     1.31974039
 C     13  11   5     1.386566618273   120.58913713   179.89988759
 H     13  11   5     1.081196019893   119.82373189     1.10118951
 C     14  12  11     1.385499460185   121.31703547   359.96109820
 H     16  13  11     1.081909981562   119.78316654   180.44560859
 H     18  14  12     1.080171658966   120.17331808   180.00336495
 Cl     3   2   1     1.741325639069   119.48917474   179.65393631
 Cl    14  12  11     1.741296586253   119.19196488   180.32217609

---------------------------
INTERNAL COORDINATES (A.U.)
---------------------------
 C      0   0   0     0.000000000000     0.00000000     0.00000000
 C      1   0   0     2.620787360307     0.00000000     0.00000000
 C      2   1   0     2.618175922975   118.63952714     0.00000000
 C      3   2   1     2.617727289129   121.32071476     0.00000000
 C      4   3   2     2.635831773199   120.06766846   359.96103452
 C      1   2   3     2.620212021129   120.69038160     0.00000000
 H      1   2   3     2.044510774301   119.52502475   179.56072184
 H      2   1   3     2.041226569191   121.18603541   180.01212109
 H      4   3   2     2.040634383256   119.34652679   178.77523602
 H      6   1   2     2.043168273132   119.57822093   178.80183793
 C      5   4   3     2.822057105118   120.35248133   180.11475760
 C     11   5   4     2.635840104558   120.35463753   224.79175713
 C     11   5   4     2.636298400530   120.95497549    44.87155408
 C     12  11   5     2.617696927292   120.07080458   180.11861286
 H     12  11   5     2.040641648710   120.56554825     1.31974039
 C     13  11   5     2.620231174973   120.58913713   179.89988759
 H     13  11   5     2.043164374684   119.82373189     1.10118951
 C     14  12  11     2.618214538445   121.31703547   359.96109820
 H     16  13  11     2.044513566708   119.78316654   180.44560859
 H     18  14  12     2.041228613070   120.17331808   180.00336495
 Cl     3   2   1     3.290628567816   119.48917474   179.65393631
 Cl    14  12  11     3.290573665951   119.19196488   180.32217609

---------------------
BASIS SET INFORMATION
---------------------
There are 3 groups of distinct atoms

 Group   1 Type C   : 17s4p1d contracted to 3s2p1d pattern {881/31/1}
 Group   2 Type H   : 4s1p contracted to 2s1p pattern {31/1}
 Group   3 Type Cl  : 34s15p1d contracted to 4s3p1d pattern {1111111/771/1}

Atom   0C    basis set group =>   1
Atom   1C    basis set group =>   1
Atom   2C    basis set group =>   1
Atom   3C    basis set group =>   1
Atom   4C    basis set group =>   1
Atom   5C    basis set group =>   1
Atom   6H    basis set group =>   2
Atom   7H    basis set group =>   2
Atom   8H    basis set group =>   2
Atom   9H    basis set group =>   2
Atom  10C    basis set group =>   1
Atom  11C    basis set group =>   1
Atom  12C    basis set group =>   1
Atom  13C    basis set group =>   1
Atom  14H    basis set group =>   2
Atom  15C    basis set group =>   1
Atom  16H    basis set group =>   2
Atom  17C    basis set group =>   1
Atom  18H    basis set group =>   2
Atom  19H    basis set group =>   2
Atom  20Cl   basis set group =>   3
Atom  21Cl   basis set group =>   3
--------------------------------------------------------------------------
WARNING: There was an error initializing an OpenFabrics device.

  Local host:   cnode10
  Local device: mlx5_0
--------------------------------------------------------------------------


           ************************************************************
           *        Program running with 8 parallel MPI-processes     *
           *              working on a common directory               *
           ************************************************************
------------------------------------------------------------------------------
                           ORCA GTO INTEGRAL CALCULATION
------------------------------------------------------------------------------
------------------------------------------------------------------------------
                   ___                                                        
                  /   \      - P O W E R E D   B Y -                         
                 /     \                                                     
                 |  |  |   _    _      __       _____    __    __             
                 |  |  |  | |  | |    /  \     |  _  \  |  |  /  |          
                  \  \/   | |  | |   /    \    | | | |  |  | /  /          
                 / \  \   | |__| |  /  /\  \   | |_| |  |  |/  /          
                |  |  |   |  __  | /  /__\  \  |    /   |      \           
                |  |  |   | |  | | |   __   |  |    \   |  |\   \          
                \     /   | |  | | |  |  |  |  | |\  \  |  | \   \       
                 \___/    |_|  |_| |__|  |__|  |_| \__\ |__|  \__/        
                                                                              
                      - O R C A' S   B I G   F R I E N D -                    
                                      &                                       
                       - I N T E G R A L  F E E D E R -                       
                                                                              
 v1 FN, 2020, v2 2021                                                         
------------------------------------------------------------------------------


Reading SHARK input file 2,7-dicl-dibenzene.SHARKINP.tmp ... ok
----------------------
SHARK INTEGRAL PACKAGE
----------------------

Number of atoms                             ...     22
Number of basis functions                   ...    244
Number of shells                            ...    112
Maximum angular momentum                    ...      2
Integral batch strategy                     ... SHARK/LIBINT Hybrid
RI-J (if used) integral strategy            ... SPLIT-RIJ (Revised 2003 algorithm where possible)
Printlevel                                  ...      1
Contraction scheme used                     ... SEGMENTED contraction
Coulomb Range Separation                    ... NOT USED
Exchange Range Separation                   ... NOT USED
Finite Nucleus Model                        ... NOT USED
Auxiliary Coulomb fitting basis             ... NOT available
Auxiliary J/K fitting basis                 ... NOT available
Auxiliary Correlation fitting basis         ... NOT available
Auxiliary 'external' fitting basis          ... NOT available
Integral threshold                          ...     1.000000e-10
Primitive cut-off                           ...     1.000000e-11
Primitive pair pre-selection threshold      ...     1.000000e-11

Calculating pre-screening integrals         ... done (  0.3 sec) Dimension = 112
Organizing shell pair data                  ... done (  0.0 sec)
Shell pair information
Total number of shell pairs                 ...      6328
Shell pairs after pre-screening             ...      5361
Total number of primitive shell pairs       ...     82956
Primitive shell pairs kept                  ...     31804
          la=0 lb=0:   1540 shell pairs
          la=1 lb=0:   1944 shell pairs
          la=1 lb=1:    641 shell pairs
          la=2 lb=0:    700 shell pairs
          la=2 lb=1:    450 shell pairs
          la=2 lb=2:     86 shell pairs

Calculating one electron integrals          ... done (  0.0 sec)
Calculating Nuclear repulsion               ... done (  0.0 sec) ENN=    944.819064205746 Eh

SHARK setup successfully completed in   0.4 seconds

Maximum memory used throughout the entire GTOINT-calculation: 24.4 MB
[cnode10:340798] 7 more processes have sent help message help-mpi-btl-openib.txt / error in device init
[cnode10:340798] Set MCA parameter "orte_base_help_aggregate" to 0 to see all help / error messages
--------------------------------------------------------------------------
WARNING: There was an error initializing an OpenFabrics device.

  Local host:   cnode10
  Local device: mlx5_0
--------------------------------------------------------------------------


           ************************************************************
           *        Program running with 8 parallel MPI-processes     *
           *              working on a common directory               *
           ************************************************************
-------------------------------------------------------------------------------
                                 ORCA SCF
-------------------------------------------------------------------------------

------------
SCF SETTINGS
------------
Hamiltonian:
 Density Functional     Method          .... DFT(GTOs)
 Exchange Functional    Exchange        .... B88
   X-Alpha parameter    XAlpha          ....  0.666667
   Becke's b parameter  XBeta           ....  0.004200
 Correlation Functional Correlation     .... LYP
 Gradients option       PostSCFGGA      .... off
   Density functional embedding theory  .... OFF
   NL short-range parameter             ....  4.000000


General Settings:
 Integral files         IntName         .... 2,7-dicl-dibenzene
 Hartree-Fock type      HFTyp           .... RHF
 Total Charge           Charge          ....    0
 Multiplicity           Mult            ....    1
 Number of Electrons    NEL             ....  114
 Basis Dimension        Dim             ....  244
 Nuclear Repulsion      ENuc            ....    944.8190642057 Eh

Convergence Acceleration:
 DIIS                   CNVDIIS         .... on
   Start iteration      DIISMaxIt       ....    12
   Startup error        DIISStart       ....  0.200000
   # of expansion vecs  DIISMaxEq       ....     5
   Bias factor          DIISBfac        ....   1.050
   Max. coefficient     DIISMaxC        ....  10.000
 Trust-Rad. Augm. Hess. CNVTRAH         .... auto
   Auto Start mean grad. ratio tolernc. ....  1.125000
   Auto Start start iteration           ....    20
   Auto Start num. interpolation iter.  ....    10
   Max. Number of Micro iterations      ....    16
   Max. Number of Macro iterations      .... Maxiter - #DIIS iter
   Number of Davidson start vectors     ....     2
   Converg. threshold I  (grad. norm)   ....   5.000e-05
   Converg. threshold II (energy diff.) ....   1.000e-06
   Grad. Scal. Fac. for Micro threshold ....   0.100
   Minimum threshold for Micro iter.    ....   0.010
   NR start threshold (gradient norm)   ....   0.001
   Initial trust radius                 ....   0.400
   Minimum AH scaling param. (alpha)    ....   1.000
   Maximum AH scaling param. (alpha)    .... 1000.000
   Orbital update algorithm             .... Taylor
   White noise on init. David. guess    .... on
   Maximum white noise                  ....   0.010
   Quad. conv. algorithm                .... NR
 SOSCF                  CNVSOSCF        .... on
   Start iteration      SOSCFMaxIt      ....   150
   Startup grad/error   SOSCFStart      ....  0.003300
 Level Shifting         CNVShift        .... on
   Level shift para.    LevelShift      ....    0.2500
   Turn off err/grad.   ShiftErr        ....    0.0010
 Zerner damping         CNVZerner       .... off
 Static damping         CNVDamp         .... on
   Fraction old density DampFac         ....    0.7000
   Max. Damping (<1)    DampMax         ....    0.9800
   Min. Damping (>=0)   DampMin         ....    0.0000
   Turn off err/grad.   DampErr         ....    0.1000
 Fernandez-Rico         CNVRico         .... off

SCF Procedure:
 Maximum # iterations   MaxIter         ....   125
 SCF integral mode      SCFMode         .... Direct
   Integral package                     .... SHARK and LIBINT hybrid scheme
 Reset frequency        DirectResetFreq ....    20
 Integral Threshold     Thresh          ....  1.000e-10 Eh
 Primitive CutOff       TCut            ....  1.000e-11 Eh

Convergence Tolerance:
 Convergence Check Mode ConvCheckMode   .... Total+1el-Energy
 Convergence forced     ConvForced      .... 0
 Energy Change          TolE            ....  1.000e-06 Eh
 1-El. energy change                    ....  1.000e-03 Eh
 Orbital Gradient       TolG            ....  5.000e-05
 Orbital Rotation angle TolX            ....  5.000e-05
 DIIS Error             TolErr          ....  1.000e-06


Diagonalization of the overlap matrix:
Smallest eigenvalue                        ... 2.956e-04
Time for diagonalization                   ...    0.007 sec
Threshold for overlap eigenvalues          ... 1.000e-08
Number of eigenvalues below threshold      ... 0
Time for construction of square roots      ...    0.007 sec
Total time needed                          ...    0.014 sec

Time for model grid setup =    0.102 sec

------------------------------
INITIAL GUESS: MODEL POTENTIAL
------------------------------
Loading Hartree-Fock densities                     ... done
Calculating cut-offs                               ... done
Initializing the effective Hamiltonian             ... done
Setting up the integral package (SHARK)            ... done
Starting the Coulomb interaction                   ... done (   0.1 sec)
Reading the grid                                   ... done
Mapping shells                                     ... done
Starting the XC term evaluation                    ... done (   0.1 sec)
  promolecular density results
     # of electrons  =    114.001871602
     EX              =   -119.172501538
     EC              =     -4.112672143
     EX+EC           =   -123.285173681
Transforming the Hamiltonian                       ... done (   0.0 sec)
Diagonalizing the Hamiltonian                      ... done (   0.0 sec)
Back transforming the eigenvectors                 ... done (   0.0 sec)
Now organizing SCF variables                       ... done
                      ------------------
                      INITIAL GUESS DONE (   0.3 sec)
                      ------------------
-------------------
DFT GRID GENERATION
-------------------

General Integration Accuracy     IntAcc      ... 4.388
Radial Grid Type                 RadialGrid  ... OptM3 with GC (2021)
Angular Grid (max. ang.)         AngularGrid ... 4 (Lebedev-302)
Angular grid pruning method      GridPruning ... 4 (adaptive)
Weight generation scheme         WeightScheme... Becke
Basis function cutoff            BFCut       ... 1.0000e-10
Integration weight cutoff        WCut        ... 1.0000e-14
Angular grids for H and He will be reduced by one unit
Partially contracted basis set               ... off
Rotationally invariant grid construction     ... off

Total number of grid points                  ...   112188
Total number of batches                      ...     1761
Average number of points per batch           ...       63
Average number of grid points per atom       ...     5099
Time for grid setup =    0.517 sec

--------------
SCF ITERATIONS
--------------
ITER       Energy         Delta-E        Max-DP      RMS-DP      [F,P]     Damp
               ***  Starting incremental Fock matrix formation  ***
  0  -1382.0873912211   0.000000000000 0.04415771  0.00171550  0.1195222 0.7000
[cnode10:340876] 7 more processes have sent help message help-mpi-btl-openib.txt / error in device init
[cnode10:340876] Set MCA parameter "orte_base_help_aggregate" to 0 to see all help / error messages
  1  -1382.1993925117  -0.112001290578 0.03067575  0.00123097  0.0553313 0.7000
                               ***Turning on DIIS***
  2  -1382.2401169637  -0.040724451962 0.04676913  0.00188060  0.0191989 0.0000
  3  -1382.2952981829  -0.055181219291 0.02034064  0.00094196  0.0401066 0.0000
  4  -1382.3156675640  -0.020369381028 0.01047153  0.00031650  0.0082066 0.0000
                      *** Initiating the SOSCF procedure ***
                           *** Shutting down DIIS ***
                      *** Re-Reading the Fockian *** 
                      *** Removing any level shift *** 
ITER      Energy       Delta-E        Grad      Rot      Max-DP    RMS-DP
  5  -1382.31700957  -0.0013420016  0.001254  0.001254  0.002994  0.000105
               *** Restarting incremental Fock matrix formation ***
  6  -1382.31709939  -0.0000898228  0.000563  0.003020  0.002354  0.000088
  7  -1382.31707135   0.0000280380  0.001410  0.002151  0.001630  0.000047
  8  -1382.31711279  -0.0000414402  0.000350  0.001691  0.001038  0.000036
  9  -1382.31710851   0.0000042852  0.000451  0.000846  0.000622  0.000021
 10  -1382.31711516  -0.0000066583  0.000087  0.000546  0.000336  0.000011
 11  -1382.31711450   0.0000006601  0.000181  0.000377  0.000212  0.000007
 12  -1382.31711540  -0.0000008944  0.000026  0.000035  0.000170  0.000003
 13  -1382.31711538   0.0000000195  0.000032  0.000024  0.000087  0.000002
                 **** Energy Check signals convergence ****
              ***Rediagonalizing the Fockian in SOSCF/NRSCF***

               *****************************************************
               *                     SUCCESS                       *
               *           SCF CONVERGED AFTER  14 CYCLES          *
               *****************************************************


----------------
TOTAL SCF ENERGY
----------------

Total Energy       :        -1382.31711542 Eh          -37614.76101 eV

Components:
Nuclear Repulsion  :          944.81906421 Eh           25709.83380 eV
Electronic Energy  :        -2327.13617963 Eh          -63324.59481 eV
One Electron Energy:        -3771.06397210 Eh         -102615.86757 eV
Two Electron Energy:         1443.92779247 Eh           39291.27276 eV

Virial components:
Potential Energy   :        -2760.19451500 Eh          -75108.71121 eV
Kinetic Energy     :         1377.87739958 Eh           37493.95020 eV
Virial Ratio       :            2.00322214


DFT components:
N(Alpha)           :       57.000014213751 electrons
N(Beta)            :       57.000014213751 electrons
N(Total)           :      114.000028427503 electrons
E(X)               :     -120.394290174376 Eh       
E(C)               :       -4.127522277318 Eh       
E(XC)              :     -124.521812451694 Eh       
DFET-embed. en.    :        0.000000000000 Eh       

---------------
SCF CONVERGENCE
---------------

  Last Energy change         ...   -4.5997e-08  Tolerance :   1.0000e-06
  Last MAX-Density change    ...    2.5051e-05  Tolerance :   1.0000e-05
  Last RMS-Density change    ...    7.0267e-07  Tolerance :   1.0000e-06
  Last Orbital Gradient      ...    3.8127e-06  Tolerance :   5.0000e-05
  Last Orbital Rotation      ...    1.2116e-05  Tolerance :   5.0000e-05

             **** THE GBW FILE WAS UPDATED (2,7-dicl-dibenzene.gbw) ****
             **** DENSITY 2,7-dicl-dibenzene.scfp WAS UPDATED ****
             **** ENERGY FILE WAS UPDATED (2,7-dicl-dibenzene.en.tmp) ****
             **** THE GBW FILE WAS UPDATED (2,7-dicl-dibenzene.gbw) ****
             **** DENSITY 2,7-dicl-dibenzene.scfp WAS UPDATED ****
----------------
ORBITAL ENERGIES
----------------

  NO   OCC          E(Eh)            E(eV) 
   0   2.0000    -100.746814     -2741.4602 
   1   2.0000    -100.746813     -2741.4602 
   2   2.0000      -9.983857      -271.6746 
   3   2.0000      -9.983852      -271.6744 
   4   2.0000      -9.947822      -270.6940 
   5   2.0000      -9.947712      -270.6910 
   6   2.0000      -9.938481      -270.4398 
   7   2.0000      -9.938479      -270.4398 
   8   2.0000      -9.937965      -270.4258 
   9   2.0000      -9.937963      -270.4257 
  10   2.0000      -9.937830      -270.4221 
  11   2.0000      -9.937829      -270.4221 
  12   2.0000      -9.933991      -270.3176 
  13   2.0000      -9.933983      -270.3174 
  14   2.0000      -9.177346      -249.7283 
  15   2.0000      -9.177340      -249.7281 
  16   2.0000      -7.010335      -190.7609 
  17   2.0000      -7.010329      -190.7608 
  18   2.0000      -6.999340      -190.4617 
  19   2.0000      -6.999340      -190.4617 
  20   2.0000      -6.998725      -190.4450 
  21   2.0000      -6.998724      -190.4450 
  22   2.0000      -0.817072       -22.2337 
  23   2.0000      -0.810478       -22.0542 
  24   2.0000      -0.772613       -21.0239 
  25   2.0000      -0.754374       -20.5276 
  26   2.0000      -0.708034       -19.2666 
  27   2.0000      -0.677183       -18.4271 
  28   2.0000      -0.662459       -18.0264 
  29   2.0000      -0.656657       -17.8685 
  30   2.0000      -0.576272       -15.6812 
  31   2.0000      -0.558977       -15.2105 
  32   2.0000      -0.536229       -14.5915 
  33   2.0000      -0.522209       -14.2100 
  34   2.0000      -0.478563       -13.0224 
  35   2.0000      -0.455974       -12.4077 
  36   2.0000      -0.433103       -11.7853 
  37   2.0000      -0.422407       -11.4943 
  38   2.0000      -0.411299       -11.1920 
  39   2.0000      -0.401015       -10.9122 
  40   2.0000      -0.386815       -10.5258 
  41   2.0000      -0.384436       -10.4610 
  42   2.0000      -0.382334       -10.4038 
  43   2.0000      -0.356966        -9.7135 
  44   2.0000      -0.349658        -9.5147 
  45   2.0000      -0.337499        -9.1838 
  46   2.0000      -0.325488        -8.8570 
  47   2.0000      -0.314565        -8.5597 
  48   2.0000      -0.309715        -8.4278 
  49   2.0000      -0.298056        -8.1105 
  50   2.0000      -0.287329        -7.8186 
  51   2.0000      -0.267150        -7.2695 
  52   2.0000      -0.264585        -7.1997 
  53   2.0000      -0.249423        -6.7871 
  54   2.0000      -0.223952        -6.0940 
  55   2.0000      -0.218048        -5.9334 
  56   2.0000      -0.209576        -5.7028 
  57   0.0000      -0.063103        -1.7171 
  58   0.0000      -0.042575        -1.1585 
  59   0.0000      -0.042350        -1.1524 
  60   0.0000      -0.018802        -0.5116 
  61   0.0000       0.003936         0.1071 
  62   0.0000       0.008543         0.2325 
  63   0.0000       0.053368         1.4522 
  64   0.0000       0.055594         1.5128 
  65   0.0000       0.080156         2.1812 
  66   0.0000       0.086016         2.3406 
  67   0.0000       0.090494         2.4625 
  68   0.0000       0.102183         2.7805 
  69   0.0000       0.103107         2.8057 
  70   0.0000       0.113917         3.0998 
  71   0.0000       0.118745         3.2312 
  72   0.0000       0.139339         3.7916 
  73   0.0000       0.199008         5.4153 
  74   0.0000       0.207258         5.6398 
  75   0.0000       0.218622         5.9490 
  76   0.0000       0.237134         6.4527 
  77   0.0000       0.256343         6.9755 
  78   0.0000       0.259392         7.0584 
  79   0.0000       0.265202         7.2165 
  80   0.0000       0.293039         7.9740 
  81   0.0000       0.303286         8.2528 
  82   0.0000       0.336474         9.1559 
  83   0.0000       0.337308         9.1786 
  84   0.0000       0.368182        10.0188 
  85   0.0000       0.368766        10.0346 
  86   0.0000       0.416130        11.3235 
  87   0.0000       0.416652        11.3377 
  88   0.0000       0.417864        11.3707 
  89   0.0000       0.422733        11.5031 
  90   0.0000       0.433004        11.7826 
  91   0.0000       0.441148        12.0043 
  92   0.0000       0.444924        12.1070 
  93   0.0000       0.449273        12.2253 
  94   0.0000       0.450610        12.2617 
  95   0.0000       0.454925        12.3791 
  96   0.0000       0.460258        12.5243 
  97   0.0000       0.465789        12.6748 
  98   0.0000       0.466406        12.6916 
  99   0.0000       0.472406        12.8548 
 100   0.0000       0.475988        12.9523 
 101   0.0000       0.480285        13.0692 
 102   0.0000       0.487402        13.2629 
 103   0.0000       0.496747        13.5172 
 104   0.0000       0.499041        13.5796 
 105   0.0000       0.504911        13.7393 
 106   0.0000       0.516975        14.0676 
 107   0.0000       0.519542        14.1375 
 108   0.0000       0.539893        14.6912 
 109   0.0000       0.548302        14.9201 
 110   0.0000       0.551877        15.0173 
 111   0.0000       0.561735        15.2856 
 112   0.0000       0.566446        15.4138 
 113   0.0000       0.577701        15.7200 
 114   0.0000       0.599733        16.3196 
 115   0.0000       0.602428        16.3929 
 116   0.0000       0.603794        16.4301 
 117   0.0000       0.607778        16.5385 
 118   0.0000       0.613122        16.6839 
 119   0.0000       0.626276        17.0418 
 120   0.0000       0.632048        17.1989 
 121   0.0000       0.633294        17.2328 
 122   0.0000       0.663354        18.0508 
 123   0.0000       0.665407        18.1066 
 124   0.0000       0.677260        18.4292 
 125   0.0000       0.679834        18.4992 
 126   0.0000       0.686792        18.6886 
 127   0.0000       0.698445        19.0057 
 128   0.0000       0.703471        19.1424 
 129   0.0000       0.734251        19.9800 
 130   0.0000       0.741815        20.1858 
 131   0.0000       0.762979        20.7617 
 132   0.0000       0.784846        21.3567 
 133   0.0000       0.787356        21.4251 
 134   0.0000       0.826726        22.4964 
 135   0.0000       0.833572        22.6826 
 136   0.0000       0.834875        22.7181 
 137   0.0000       0.853389        23.2219 
 138   0.0000       0.873352        23.7651 
 139   0.0000       0.875640        23.8274 
 140   0.0000       0.875671        23.8282 
 141   0.0000       0.888315        24.1723 
 142   0.0000       0.905748        24.6467 
 143   0.0000       0.908611        24.7246 
 144   0.0000       0.937085        25.4994 
 145   0.0000       0.939502        25.5652 
 146   0.0000       0.969011        26.3681 
 147   0.0000       0.970156        26.3993 
 148   0.0000       0.976287        26.5661 
 149   0.0000       0.982238        26.7280 
 150   0.0000       0.997034        27.1307 
 151   0.0000       1.004629        27.3373 
 152   0.0000       1.014645        27.6099 
 153   0.0000       1.021647        27.8004 
 154   0.0000       1.025177        27.8965 
 155   0.0000       1.028853        27.9965 
 156   0.0000       1.052388        28.6369 
 157   0.0000       1.066246        29.0140 
 158   0.0000       1.073222        29.2039 
 159   0.0000       1.139633        31.0110 
 160   0.0000       1.163528        31.6612 
 161   0.0000       1.165155        31.7055 
 162   0.0000       1.171815        31.8867 
 163   0.0000       1.190255        32.3885 
 164   0.0000       1.194290        32.4983 
 165   0.0000       1.247538        33.9472 
 166   0.0000       1.267552        34.4918 
 167   0.0000       1.298728        35.3402 
 168   0.0000       1.343917        36.5698 
 169   0.0000       1.347681        36.6723 
 170   0.0000       1.371019        37.3073 
 171   0.0000       1.408756        38.3342 
 172   0.0000       1.410512        38.3820 
 173   0.0000       1.436219        39.0815 
 174   0.0000       1.440421        39.1958 
 175   0.0000       1.457625        39.6640 
 176   0.0000       1.458028        39.6750 
 177   0.0000       1.464548        39.8524 
 178   0.0000       1.486291        40.4440 
 179   0.0000       1.488914        40.5154 
 180   0.0000       1.543210        41.9929 
 181   0.0000       1.546831        42.0914 
 182   0.0000       1.560928        42.4750 
 183   0.0000       1.573875        42.8273 
 184   0.0000       1.579194        42.9720 
 185   0.0000       1.587634        43.2017 
 186   0.0000       1.591873        43.3171 
 187   0.0000       1.598772        43.5048 
 188   0.0000       1.603023        43.6205 
 189   0.0000       1.619787        44.0766 
 190   0.0000       1.624058        44.1929 
 191   0.0000       1.638305        44.5805 
 192   0.0000       1.648366        44.8543 
 193   0.0000       1.669288        45.4236 
 194   0.0000       1.686851        45.9015 
 195   0.0000       1.704495        46.3817 
 196   0.0000       1.706790        46.4441 
 197   0.0000       1.719292        46.7843 
 198   0.0000       1.742196        47.4076 
 199   0.0000       1.743467        47.4422 
 200   0.0000       1.760044        47.8932 
 201   0.0000       1.769775        48.1580 
 202   0.0000       1.794375        48.8274 
 203   0.0000       1.802719        49.0545 
 204   0.0000       1.808694        49.2171 
 205   0.0000       1.817089        49.4455 
 206   0.0000       1.826194        49.6933 
 207   0.0000       1.827781        49.7365 
 208   0.0000       1.849795        50.3355 
 209   0.0000       1.857158        50.5358 
 210   0.0000       1.865249        50.7560 
 211   0.0000       1.881612        51.2013 
 212   0.0000       1.925846        52.4049 
 213   0.0000       1.946214        52.9592 
 214   0.0000       1.960526        53.3486 
 215   0.0000       1.961949        53.3873 
 216   0.0000       2.018481        54.9257 
 217   0.0000       2.043297        55.6009 
 218   0.0000       2.055449        55.9316 
 219   0.0000       2.093921        56.9785 
 220   0.0000       2.144091        58.3437 
 221   0.0000       2.147526        58.4372 
 222   0.0000       2.150434        58.5163 
 223   0.0000       2.174294        59.1656 
 224   0.0000       2.279848        62.0378 
 225   0.0000       2.291865        62.3648 
 226   0.0000       2.334509        63.5252 
 227   0.0000       2.340491        63.6880 
 228   0.0000       2.351481        63.9871 
 229   0.0000       2.372534        64.5599 
 230   0.0000       2.443299        66.4855 
 231   0.0000       2.470354        67.2218 
 232   0.0000       2.486658        67.6654 
 233   0.0000       2.594890        70.6106 
 234   0.0000       2.614570        71.1461 
 235   0.0000       2.619674        71.2850 
 236   0.0000       2.644554        71.9620 
 237   0.0000       2.690492        73.2120 
 238   0.0000       2.714731        73.8716 
 239   0.0000       2.722882        74.0934 
 240   0.0000       2.803455        76.2859 
 241   0.0000       2.848125        77.5014 
 242   0.0000       3.328768        90.5804 
 243   0.0000       3.448681        93.8434 

                    ********************************
                    * MULLIKEN POPULATION ANALYSIS *
                    ********************************

-----------------------
MULLIKEN ATOMIC CHARGES
-----------------------
   0 C :    0.082441
   1 C :    0.147508
   2 C :   -0.126146
   3 C :    0.143623
   4 C :    0.035384
   5 C :    0.053064
   6 H :   -0.053633
   7 H :   -0.059048
   8 H :   -0.068377
   9 H :   -0.071111
  10 C :    0.035189
  11 C :    0.143780
  12 C :    0.053026
  13 C :   -0.126185
  14 H :   -0.068406
  15 C :    0.082353
  16 H :   -0.071153
  17 C :    0.147635
  18 H :   -0.053649
  19 H :   -0.059036
  20 Cl:   -0.083637
  21 Cl:   -0.083622
Sum of atomic charges:    0.0000000

--------------------------------
MULLIKEN REDUCED ORBITAL CHARGES
--------------------------------
  0 C s       :     3.081410  s :     3.081410
      pz      :     0.951652  p :     2.771402
      px      :     0.937864
      py      :     0.881886
      dz2     :     0.004427  d :     0.064747
      dxz     :     0.010109
      dyz     :     0.009074
      dx2y2   :     0.019275
      dxy     :     0.021863
  1 C s       :     3.091336  s :     3.091336
      pz      :     0.979436  p :     2.699599
      px      :     0.892699
      py      :     0.827464
      dz2     :     0.006542  d :     0.061557
      dxz     :     0.009033
      dyz     :     0.007751
      dx2y2   :     0.015895
      dxy     :     0.022335
  2 C s       :     3.218778  s :     3.218778
      pz      :     0.994771  p :     2.809257
      px      :     0.752988
      py      :     1.061499
      dz2     :     0.009302  d :     0.098111
      dxz     :     0.015968
      dyz     :     0.015269
      dx2y2   :     0.030900
      dxy     :     0.026671
  3 C s       :     3.130372  s :     3.130372
      pz      :     0.976300  p :     2.665590
      px      :     0.895851
      py      :     0.793439
      dz2     :     0.004209  d :     0.060415
      dxz     :     0.009649
      dyz     :     0.009068
      dx2y2   :     0.016769
      dxy     :     0.020719
  4 C s       :     3.135851  s :     3.135851
      pz      :     0.968119  p :     2.747151
      px      :     0.912780
      py      :     0.866252
      dz2     :     0.008110  d :     0.081614
      dxz     :     0.011968
      dyz     :     0.012455
      dx2y2   :     0.024355
      dxy     :     0.024726
  5 C s       :     3.137094  s :     3.137094
      pz      :     0.978113  p :     2.747062
      px      :     0.797663
      py      :     0.971285
      dz2     :     0.004305  d :     0.062780
      dxz     :     0.005846
      dyz     :     0.012540
      dx2y2   :     0.023148
      dxy     :     0.016941
  6 H s       :     1.025179  s :     1.025179
      pz      :     0.007433  p :     0.028453
      px      :     0.007436
      py      :     0.013584
  7 H s       :     1.030258  s :     1.030258
      pz      :     0.006181  p :     0.028790
      px      :     0.008245
      py      :     0.014364
  8 H s       :     1.039511  s :     1.039511
      pz      :     0.007572  p :     0.028866
      px      :     0.007822
      py      :     0.013472
  9 H s       :     1.042737  s :     1.042737
      pz      :     0.007460  p :     0.028374
      px      :     0.016170
      py      :     0.004743
 10 C s       :     3.135830  s :     3.135830
      pz      :     0.932014  p :     2.747361
      px      :     0.939333
      py      :     0.876015
      dz2     :     0.019730  d :     0.081620
      dxz     :     0.014540
      dyz     :     0.020664
      dx2y2   :     0.013265
      dxy     :     0.013420
 11 C s       :     3.130275  s :     3.130275
      pz      :     0.842765  p :     2.665529
      px      :     0.965779
      py      :     0.856985
      dz2     :     0.013740  d :     0.060416
      dxz     :     0.008187
      dyz     :     0.017037
      dx2y2   :     0.011670
      dxy     :     0.009783
 12 C s       :     3.137036  s :     3.137036
      pz      :     0.869148  p :     2.747149
      px      :     0.927138
      py      :     0.950862
      dz2     :     0.013093  d :     0.062789
      dxz     :     0.011344
      dyz     :     0.017208
      dx2y2   :     0.011208
      dxy     :     0.009936
 13 C s       :     3.218814  s :     3.218814
      pz      :     0.832461  p :     2.809253
      px      :     0.943281
      py      :     1.033511
      dz2     :     0.023270  d :     0.098119
      dxz     :     0.019992
      dyz     :     0.024246
      dx2y2   :     0.015943
      dxy     :     0.014668
 14 H s       :     1.039541  s :     1.039541
      pz      :     0.013649  p :     0.028865
      px      :     0.005787
      py      :     0.009429
 15 C s       :     3.081477  s :     3.081477
      pz      :     0.875574  p :     2.771421
      px      :     0.969883
      py      :     0.925964
      dz2     :     0.013377  d :     0.064749
      dxz     :     0.009003
      dyz     :     0.020247
      dx2y2   :     0.012194
      dxy     :     0.009928
 16 H s       :     1.042782  s :     1.042782
      pz      :     0.013132  p :     0.028372
      px      :     0.009369
      py      :     0.005871
 17 C s       :     3.091275  s :     3.091275
      pz      :     0.936255  p :     2.699531
      px      :     0.928447
      py      :     0.834830
      dz2     :     0.018443  d :     0.061559
      dxz     :     0.011287
      dyz     :     0.015176
      dx2y2   :     0.006832
      dxy     :     0.009821
 18 H s       :     1.025196  s :     1.025196
      pz      :     0.013234  p :     0.028453
      px      :     0.005710
      py      :     0.009509
 19 H s       :     1.030246  s :     1.030246
      pz      :     0.004894  p :     0.028790
      px      :     0.009105
      py      :     0.014791
 20 Cls       :     5.915777  s :     5.915777
      pz      :     3.846624  p :    11.128458
      px      :     3.329213
      py      :     3.952621
      dz2     :     0.005569  d :     0.039401
      dxz     :     0.012664
      dyz     :     0.000864
      dx2y2   :     0.014280
      dxy     :     0.006024
 21 Cls       :     5.915775  s :     5.915775
      pz      :     3.500775  p :    11.128443
      px      :     3.731277
      py      :     3.896391
      dz2     :     0.010375  d :     0.039404
      dxz     :     0.014088
      dyz     :     0.007570
      dx2y2   :     0.004141
      dxy     :     0.003230


                     *******************************
                     * LOEWDIN POPULATION ANALYSIS *
                     *******************************

----------------------
LOEWDIN ATOMIC CHARGES
----------------------
   0 C :   -0.010429
   1 C :   -0.028894
   2 C :   -0.141039
   3 C :   -0.022872
   4 C :   -0.010823
   5 C :   -0.014934
   6 H :    0.026809
   7 H :    0.025121
   8 H :    0.023112
   9 H :    0.022640
  10 C :   -0.010829
  11 C :   -0.022869
  12 C :   -0.014939
  13 C :   -0.141067
  14 H :    0.023111
  15 C :   -0.010431
  16 H :    0.022634
  17 C :   -0.028887
  18 H :    0.026808
  19 H :    0.025122
  20 Cl:    0.131312
  21 Cl:    0.131343

-------------------------------
LOEWDIN REDUCED ORBITAL CHARGES
-------------------------------
  0 C s       :     2.807617  s :     2.807617
      pz      :     0.945189  p :     2.997666
      px      :     1.029242
      py      :     1.023234
      dz2     :     0.015205  d :     0.205146
      dxz     :     0.030641
      dyz     :     0.025019
      dx2y2   :     0.063575
      dxy     :     0.070706
  1 C s       :     2.810645  s :     2.810645
      pz      :     0.968749  p :     3.017854
      px      :     1.034071
      py      :     1.015034
      dz2     :     0.021242  d :     0.200395
      dxz     :     0.029143
      dyz     :     0.022194
      dx2y2   :     0.055076
      dxy     :     0.072740
  2 C s       :     2.855699  s :     2.855699
      pz      :     0.990502  p :     3.012055
      px      :     0.918991
      py      :     1.102562
      dz2     :     0.024398  d :     0.273284
      dxz     :     0.038471
      dyz     :     0.041704
      dx2y2   :     0.091481
      dxy     :     0.077230
  3 C s       :     2.810428  s :     2.810428
      pz      :     0.970491  p :     3.014162
      px      :     1.026462
      py      :     1.017209
      dz2     :     0.015405  d :     0.198281
      dxz     :     0.028578
      dyz     :     0.024478
      dx2y2   :     0.057699
      dxy     :     0.072122
  4 C s       :     2.798060  s :     2.798060
      pz      :     0.935855  p :     2.965704
      px      :     1.024016
      py      :     1.005834
      dz2     :     0.023977  d :     0.247058
      dxz     :     0.035295
      dyz     :     0.033911
      dx2y2   :     0.075861
      dxy     :     0.078015
  5 C s       :     2.807431  s :     2.807431
      pz      :     0.962067  p :     3.006972
      px      :     1.007176
      py      :     1.037729
      dz2     :     0.014777  d :     0.200531
      dxz     :     0.016332
      dyz     :     0.036098
      dx2y2   :     0.075734
      dxy     :     0.057591
  6 H s       :     0.892058  s :     0.892058
      pz      :     0.021082  p :     0.081133
      px      :     0.022267
      py      :     0.037784
  7 H s       :     0.892067  s :     0.892067
      pz      :     0.018224  p :     0.082812
      px      :     0.024258
      py      :     0.040330
  8 H s       :     0.892644  s :     0.892644
      pz      :     0.022243  p :     0.084243
      px      :     0.023288
      py      :     0.038712
  9 H s       :     0.894189  s :     0.894189
      pz      :     0.021866  p :     0.083172
      px      :     0.045441
      py      :     0.015865
 10 C s       :     2.798055  s :     2.798055
      pz      :     1.037221  p :     2.965714
      px      :     0.948834
      py      :     0.979659
      dz2     :     0.062951  d :     0.247059
      dxz     :     0.044847
      dyz     :     0.063771
      dx2y2   :     0.036213
      dxy     :     0.039277
 11 C s       :     2.810421  s :     2.810421
      pz      :     1.014821  p :     3.014163
      px      :     0.988088
      py      :     1.011253
      dz2     :     0.044024  d :     0.198286
      dxz     :     0.027891
      dyz     :     0.055693
      dx2y2   :     0.034074
      dxy     :     0.036604
 12 C s       :     2.807426  s :     2.807426
      pz      :     1.008303  p :     3.006980
      px      :     0.977416
      py      :     1.021261
      dz2     :     0.041969  d :     0.200532
      dxz     :     0.034058
      dyz     :     0.056917
      dx2y2   :     0.034165
      dxy     :     0.033424
 13 C s       :     2.855692  s :     2.855692
      pz      :     0.963816  p :     3.012083
      px      :     0.978625
      py      :     1.069643
      dz2     :     0.063600  d :     0.273292
      dxz     :     0.052429
      dyz     :     0.071240
      dx2y2   :     0.043995
      dxy     :     0.042028
 14 H s       :     0.892649  s :     0.892649
      pz      :     0.039077  p :     0.084241
      px      :     0.017565
      py      :     0.027599
 15 C s       :     2.807616  s :     2.807616
      pz      :     1.007033  p :     2.997669
      px      :     0.976247
      py      :     1.014389
      dz2     :     0.042718  d :     0.205146
      dxz     :     0.029751
      dyz     :     0.062655
      dx2y2   :     0.036050
      dxy     :     0.033973
 16 H s       :     0.894195  s :     0.894195
      pz      :     0.037509  p :     0.083171
      px      :     0.027034
      py      :     0.018627
 17 C s       :     2.810645  s :     2.810645
      pz      :     1.033902  p :     3.017843
      px      :     0.982244
      py      :     1.001697
      dz2     :     0.060520  d :     0.200399
      dxz     :     0.038103
      dyz     :     0.052061
      dx2y2   :     0.019515
      dxy     :     0.030201
 18 H s       :     0.892059  s :     0.892059
      pz      :     0.036665  p :     0.081132
      px      :     0.017196
      py      :     0.027270
 19 H s       :     0.892066  s :     0.892066
      pz      :     0.015565  p :     0.082812
      px      :     0.026003
      py      :     0.041243
 20 Cls       :     5.728224  s :     5.728224
      pz      :     3.829694  p :    11.094217
      px      :     3.346927
      py      :     3.917596
      dz2     :     0.006318  d :     0.046247
      dxz     :     0.014632
      dyz     :     0.000971
      dx2y2   :     0.017304
      dxy     :     0.007022
 21 Cls       :     5.728211  s :     5.728211
      pz      :     3.505364  p :    11.094195
      px      :     3.721181
      py      :     3.867650
      dz2     :     0.012143  d :     0.046252
      dxz     :     0.016685
      dyz     :     0.008958
      dx2y2   :     0.004752
      dxy     :     0.003713


                      *****************************
                      * MAYER POPULATION ANALYSIS *
                      *****************************

  NA   - Mulliken gross atomic population
  ZA   - Total nuclear charge
  QA   - Mulliken gross atomic charge
  VA   - Mayer's total valence
  BVA  - Mayer's bonded valence
  FA   - Mayer's free valence

  ATOM       NA         ZA         QA         VA         BVA        FA
  0 C      5.9176     6.0000     0.0824     4.0047     4.0047     0.0000
  1 C      5.8525     6.0000     0.1475     3.9552     3.9552     0.0000
  2 C      6.1261     6.0000    -0.1261     4.0329     4.0329    -0.0000
  3 C      5.8564     6.0000     0.1436     3.9011     3.9011     0.0000
  4 C      5.9646     6.0000     0.0354     4.0107     4.0107    -0.0000
  5 C      5.9469     6.0000     0.0531     3.9846     3.9846     0.0000
  6 H      1.0536     1.0000    -0.0536     0.9606     0.9606     0.0000
  7 H      1.0590     1.0000    -0.0590     0.9762     0.9762     0.0000
  8 H      1.0684     1.0000    -0.0684     0.9910     0.9910     0.0000
  9 H      1.0711     1.0000    -0.0711     0.9762     0.9762     0.0000
 10 C      5.9648     6.0000     0.0352     4.0110     4.0110     0.0000
 11 C      5.8562     6.0000     0.1438     3.9010     3.9010     0.0000
 12 C      5.9470     6.0000     0.0530     3.9848     3.9848    -0.0000
 13 C      6.1262     6.0000    -0.1262     4.0328     4.0328     0.0000
 14 H      1.0684     1.0000    -0.0684     0.9910     0.9910    -0.0000
 15 C      5.9176     6.0000     0.0824     4.0048     4.0048     0.0000
 16 H      1.0712     1.0000    -0.0712     0.9762     0.9762    -0.0000
 17 C      5.8524     6.0000     0.1476     3.9551     3.9551     0.0000
 18 H      1.0536     1.0000    -0.0536     0.9606     0.9606    -0.0000
 19 H      1.0590     1.0000    -0.0590     0.9761     0.9761    -0.0000
 20 Cl    17.0836    17.0000    -0.0836     1.1504     1.1504     0.0000
 21 Cl    17.0836    17.0000    -0.0836     1.1504     1.1504    -0.0000

  Mayer bond orders larger than 0.100000
B(  0-C ,  1-C ) :   1.4483 B(  0-C ,  5-C ) :   1.4522 B(  0-C ,  6-H ) :   0.9153 
B(  1-C ,  2-C ) :   1.4060 B(  1-C ,  7-H ) :   0.9179 B(  2-C ,  3-C ) :   1.3831 
B(  2-C , 20-Cl) :   1.0206 B(  3-C ,  4-C ) :   1.4234 B(  3-C ,  8-H ) :   0.9121 
B(  4-C ,  5-C ) :   1.4361 B(  4-C , 10-C ) :   0.9513 B(  5-C ,  9-H ) :   0.9177 
B( 10-C , 11-C ) :   1.4234 B( 10-C , 12-C ) :   1.4362 B( 11-C , 13-C ) :   1.3831 
B( 11-C , 14-H ) :   0.9121 B( 12-C , 15-C ) :   1.4522 B( 12-C , 16-H ) :   0.9176 
B( 13-C , 17-C ) :   1.4059 B( 13-C , 21-Cl) :   1.0206 B( 15-C , 17-C ) :   1.4483 
B( 15-C , 18-H ) :   0.9153 B( 17-C , 19-H ) :   0.9179 

-------
TIMINGS
-------

Total SCF time: 0 days 0 hours 0 min 42 sec 

Total time                  ....      42.274 sec
Sum of individual times     ....      41.986 sec  ( 99.3%)

Fock matrix formation       ....      41.007 sec  ( 97.0%)
  XC integration            ....       4.332 sec  ( 10.6% of F)
    Basis function eval.    ....       1.159 sec  ( 26.8% of XC)
    Density eval.           ....       0.510 sec  ( 11.8% of XC)
    XC-Functional eval.     ....       0.138 sec  (  3.2% of XC)
    XC-Potential eval.      ....       0.503 sec  ( 11.6% of XC)
Diagonalization             ....       0.055 sec  (  0.1%)
Density matrix formation    ....       0.008 sec  (  0.0%)
Population analysis         ....       0.015 sec  (  0.0%)
Initial guess               ....       0.164 sec  (  0.4%)
Orbital Transformation      ....       0.000 sec  (  0.0%)
Orbital Orthonormalization  ....       0.000 sec  (  0.0%)
DIIS solution               ....       0.039 sec  (  0.1%)
SOSCF solution              ....       0.079 sec  (  0.2%)
Grid generation             ....       0.619 sec  (  1.5%)

Maximum memory used throughout the entire SCF-calculation: 245.0 MB

-------------------------   --------------------
FINAL SINGLE POINT ENERGY     -1382.317115424414
-------------------------   --------------------


                            ***************************************
                            *     ORCA property calculations      *
                            ***************************************

                                    ---------------------
                                    Active property flags
                                    ---------------------
   (+) Dipole Moment


------------------------------------------------------------------------------
                       ORCA ELECTRIC PROPERTIES CALCULATION
------------------------------------------------------------------------------

Dipole Moment Calculation                       ... on
Quadrupole Moment Calculation                   ... off
Polarizability Calculation                      ... off
GBWName                                         ... 2,7-dicl-dibenzene.gbw
Electron density file                           ... 2,7-dicl-dibenzene.scfp
The origin for moment calculation is the CENTER OF MASS  = (-2.079645,  7.725980  1.172565)

-------------
DIPOLE MOMENT
-------------
                                X             Y             Z
Electronic contribution:      3.34744       1.93643       3.86614
Nuclear contribution   :     -3.59384      -2.07894      -4.15061
                        -----------------------------------------
Total Dipole Moment    :     -0.24640      -0.14250      -0.28446
                        -----------------------------------------
Magnitude (a.u.)       :      0.40242
Magnitude (Debye)      :      1.02286



--------------------
Rotational spectrum 
--------------------
 
Rotational constants in cm-1:     0.042977     0.007687     0.006936 
Rotational constants in MHz :  1288.420402   230.438753   207.945622 

 Dipole components along the rotational axes: 
x,y,z [a.u.] :     0.000039     0.000048    -0.402416 
x,y,z [Debye]:     0.000099     0.000121    -1.022860 

 
--------------------------------------------------------------------------
WARNING: There was an error initializing an OpenFabrics device.

  Local host:   cnode10
  Local device: mlx5_0
--------------------------------------------------------------------------
[cnode10:341025] 7 more processes have sent help message help-mpi-btl-openib.txt / error in device init
[cnode10:341025] Set MCA parameter "orte_base_help_aggregate" to 0 to see all help / error messages

Timings for individual modules:

Sum of individual times         ...       43.577 sec (=   0.726 min)
GTO integral calculation        ...        0.891 sec (=   0.015 min)   2.0 %
SCF iterations                  ...       42.686 sec (=   0.711 min)  98.0 %
                             ****ORCA TERMINATED NORMALLY****
TOTAL RUN TIME: 0 days 0 hours 0 minutes 44 seconds 94 msec

Sender: Unischeduler System <lcz@mgt01>
Subject: Job 127777: <#!/bin/bash
#BSUB -J intel
#BSUB -o 2,7-dicl-dibenzene.out
#BSUB -n 8
#BSUB -q cqueue
#BSUB -R span[hosts=1]
export LD_LIBRARY_PATH=/apps/software/openmpi-4.1.1/lib:/apps/software/orca_5_0_0:$LD_LIBRARY_PATH
export PATH=/apps/software/openmpi-4.1.1/bin:/apps/software/orca_5_0_0:$PATH
/apps/software/orca_5_0_0/orca 2,7-dicl-dibenzene.inp >& 2,7-dicl-dibenzene.out> Done

Job <#!/bin/bash
#BSUB -J intel
#BSUB -o 2,7-dicl-dibenzene.out
#BSUB -n 8
#BSUB -q cqueue
#BSUB -R span[hosts=1]
export LD_LIBRARY_PATH=/apps/software/openmpi-4.1.1/lib:/apps/software/orca_5_0_0:$LD_LIBRARY_PATH
export PATH=/apps/software/openmpi-4.1.1/bin:/apps/software/orca_5_0_0:$PATH
/apps/software/orca_5_0_0/orca 2,7-dicl-dibenzene.inp >& 2,7-dicl-dibenzene.out> was submitted from host <mgt01> by user <lcz>.
Job was executed on host(s) <8*cnode10>, in queue <cqueue>, as user <lcz>.
</apps/users/lcz> was used as the home directory.
</apps/users/lcz/task2/section1/isomer1/BLYP_cc-pVDZ/ORCA> was used as the working directory.
Started at 2022-05-04 12:30:49
Results reported at 2022-05-04 12:31:33

Your job looked like:

------------------------------------------------------------
# User input
#!/bin/bash
#BSUB -J intel
#BSUB -o 2,7-dicl-dibenzene.out
#BSUB -n 8
#BSUB -q cqueue
#BSUB -R span[hosts=1]
export LD_LIBRARY_PATH=/apps/software/openmpi-4.1.1/lib:/apps/software/orca_5_0_0:$LD_LIBRARY_PATH
export PATH=/apps/software/openmpi-4.1.1/bin:/apps/software/orca_5_0_0:$PATH
/apps/software/orca_5_0_0/orca 2,7-dicl-dibenzene.inp >& 2,7-dicl-dibenzene.out
------------------------------------------------------------

Successfully completed.

Resource usage summary:

    CPU time   :           320.0 sec.
    Max Memory :              1083 MB
    Max Processes  :              13


The output (if any) follows:

