
                                        *****************
                                        * O   R   C   A *
                                        *****************

                                            #,                                       
                                            ###                                      
                                            ####                                     
                                            #####                                    
                                            ######                                   
                                           ########,                                 
                                     ,,################,,,,,                         
                               ,,#################################,,                 
                          ,,##########################################,,             
                       ,#########################################, ''#####,          
                    ,#############################################,,   '####,        
                  ,##################################################,,,,####,       
                ,###########''''           ''''###############################       
              ,#####''   ,,,,##########,,,,          '''####'''          '####       
            ,##' ,,,,###########################,,,                        '##       
           ' ,,###''''                  '''############,,,                           
         ,,##''                                '''############,,,,        ,,,,,,###''
      ,#''                                            '''#######################'''  
     '                                                          ''''####''''         
             ,#######,   #######,   ,#######,      ##                                
            ,#'     '#,  ##    ##  ,#'     '#,    #''#        ######   ,####,        
            ##       ##  ##   ,#'  ##            #'  '#       #        #'  '#        
            ##       ##  #######   ##           ,######,      #####,   #    #        
            '#,     ,#'  ##    ##  '#,     ,#' ,#      #,         ##   #,  ,#        
             '#######'   ##     ##  '#######'  #'      '#     #####' # '####'        



                  #######################################################
                  #                        -***-                        #
                  #          Department of theory and spectroscopy      #
                  #    Directorship and core code : Frank Neese         #
                  #        Max Planck Institute fuer Kohlenforschung    #
                  #                Kaiser Wilhelm Platz 1               #
                  #                 D-45470 Muelheim/Ruhr               #
                  #                      Germany                        #
                  #                                                     #
                  #                  All rights reserved                #
                  #                        -***-                        #
                  #######################################################


                         Program Version 5.0.0 -  RELEASE  -
                                (SVN: $Rev: 19529$)
                ($Date: 2021-06-28 11:36:33 +0200 (Mo, 28 Jun 2021) $)


 With contributions from (in alphabetic order):
   Daniel Aravena         : Magnetic Suceptibility
   Michael Atanasov       : Ab Initio Ligand Field Theory (pilot matlab implementation)
   Alexander A. Auer      : GIAO ZORA, VPT2 properties, NMR spectrum
   Ute Becker             : Parallelization
   Giovanni Bistoni       : ED, misc. LED, open-shell LED, HFLD
   Martin Brehm           : Molecular dynamics
   Dmytro Bykov           : SCF Hessian
   Vijay G. Chilkuri      : MRCI spin determinant printing, contributions to CSF-ICE
   Dipayan Datta          : RHF DLPNO-CCSD density
   Achintya Kumar Dutta   : EOM-CC, STEOM-CC
   Dmitry Ganyushin       : Spin-Orbit,Spin-Spin,Magnetic field MRCI
   Miquel Garcia          : C-PCM Hessian, Gaussian charge scheme
   Yang Guo               : DLPNO-NEVPT2, F12-NEVPT2, CIM, IAO-localization
   Andreas Hansen         : Spin unrestricted coupled pair/coupled cluster methods
   Benjamin Helmich-Paris : MC-RPA, TRAH-SCF, COSX integrals
   Lee Huntington         : MR-EOM, pCC
   Robert Izsak           : Overlap fitted RIJCOSX, COSX-SCS-MP3, EOM
   Marcus Kettner         : VPT2
   Christian Kollmar      : KDIIS, OOCD, Brueckner-CCSD(T), CCSD density, CASPT2, CASPT2-K
   Simone Kossmann        : Meta GGA functionals, TD-DFT gradient, OOMP2, MP2 Hessian
   Martin Krupicka        : Initial AUTO-CI
   Lucas Lang             : DCDCAS
   Marvin Lechner         : AUTO-CI (C++ implementation), FIC-MRCC
   Dagmar Lenk            : GEPOL surface, SMD
   Dimitrios Liakos       : Extrapolation schemes; Compound Job, initial MDCI parallelization
   Dimitrios Manganas     : Further ROCIS development; embedding schemes
   Dimitrios Pantazis     : SARC Basis sets
   Anastasios Papadopoulos: AUTO-CI, single reference methods and gradients
   Taras Petrenko         : DFT Hessian,TD-DFT gradient, ASA, ECA, R-Raman, ABS, FL, XAS/XES, NRVS
   Peter Pinski           : DLPNO-MP2, DLPNO-MP2 Gradient
   Christoph Reimann      : Effective Core Potentials
   Marius Retegan         : Local ZFS, SOC
   Christoph Riplinger    : Optimizer, TS searches, QM/MM, DLPNO-CCSD(T), (RO)-DLPNO pert. Triples
   Tobias Risthaus        : Range-separated hybrids, TD-DFT gradient, RPA, STAB
   Michael Roemelt        : Original ROCIS implementation
   Masaaki Saitow         : Open-shell DLPNO-CCSD energy and density
   Barbara Sandhoefer     : DKH picture change effects
   Avijit Sen             : IP-ROCIS
   Kantharuban Sivalingam : CASSCF convergence, NEVPT2, FIC-MRCI
   Bernardo de Souza      : ESD, SOC TD-DFT
   Georgi Stoychev        : AutoAux, RI-MP2 NMR
   Willem Van den Heuvel  : Paramagnetic NMR
   Boris Wezisla          : Elementary symmetry handling
   Frank Wennmohs         : Technical directorship


 We gratefully acknowledge several colleagues who have allowed us to
 interface, adapt or use parts of their codes:
   Stefan Grimme, W. Hujo, H. Kruse, P. Pracht,  : VdW corrections, initial TS optimization,
                  C. Bannwarth, S. Ehlert          DFT functionals, gCP, sTDA/sTD-DF
   Ed Valeev, F. Pavosevic, A. Kumar             : LibInt (2-el integral package), F12 methods
   Garnet Chan, S. Sharma, J. Yang, R. Olivares  : DMRG
   Ulf Ekstrom                                   : XCFun DFT Library
   Mihaly Kallay                                 : mrcc  (arbitrary order and MRCC methods)
   Jiri Pittner, Ondrej Demel                    : Mk-CCSD
   Frank Weinhold                                : gennbo (NPA and NBO analysis)
   Christopher J. Cramer and Donald G. Truhlar   : smd solvation model
   Lars Goerigk                                  : TD-DFT with DH, B97 family of functionals
   V. Asgeirsson, H. Jonsson                     : NEB implementation
   FAccTs GmbH                                   : IRC, NEB, NEB-TS, DLPNO-Multilevel, CI-OPT
                                                   MM, QMMM, 2- and 3-layer-ONIOM, Crystal-QMMM,
                                                   LR-CPCM, SF, NACMEs, symmetry and pop. for TD-DFT,
                                                   nearIR, NL-DFT gradient (VV10), updates on ESD,
                                                   ML-optimized integration grids
   S Lehtola, MJT Oliveira, MAL Marques          : LibXC Library
   Liviu Ungur et al                             : ANISO software


 Your calculation uses the libint2 library for the computation of 2-el integrals
 For citations please refer to: http://libint.valeyev.net

 Your ORCA version has been built with support for libXC version: 5.1.0
 For citations please refer to: https://tddft.org/programs/libxc/

 This ORCA versions uses:
   CBLAS   interface :  Fast vector & matrix operations
   LAPACKE interface :  Fast linear algebra routines
   SCALAPACK package :  Parallel linear algebra routines
   Shared memory     :  Shared parallel matrices
   BLAS/LAPACK       :  OpenBLAS 0.3.15  USE64BITINT DYNAMIC_ARCH NO_AFFINITY SkylakeX SINGLE_THREADED
        Core in use  :  SkylakeX
   Copyright (c) 2011-2014, The OpenBLAS Project


================================================================================

----- Orbital basis set information -----
Your calculation utilizes the basis: cc-pVDZ 
       H, B-Ne : Obtained from the ccRepo (grant-hill.group.shef.ac.uk/ccrepo) Feb. 2017
                 T. H. Dunning, Jr., J. Chem. Phys. 90, 1007 (1989)
            He : Obtained from the ccRepo (grant-hill.group.shef.ac.uk/ccrepo) Feb. 2017
                 D. E. Woon, T. H. Dunning, Jr., J. Chem. Phys. 100, 2975 (1994)
  Li-Be, Na-Mg : Obtained from the ccRepo (grant-hill.group.shef.ac.uk/ccrepo) Feb. 2017
                 B. P. Prascher, D. E. Woon, K. A. Peterson, T. H. Dunning, Jr., A. K. Wilson, Theor. Chem. Acc. 128, 69 (2011)
         Al-Ar : Obtained from the ccRepo (grant-hill.group.shef.ac.uk/ccrepo) Feb. 2017
                 D. E. Woon, T. H. Dunning, Jr., J. Chem. Phys. 98, 1358 (1993)
            Ca : Obtained from the Peterson Research Group Website (tyr0.chem.wsu.edu/~kipeters) Feb. 2017
                 J. Koput, K. A. Peterson, J. Phys. Chem. 106, 9595 (2002)
         Sc-Zn : Obtained from the ccRepo (grant-hill.group.shef.ac.uk/ccrepo) Feb. 2017
                 N. B. Balabanov, K. A. Peterson, J. Chem. Phys. 123, 064107 (2005)
                 N. B. Balabanov, K. A. Peterson, J. Chem. Phys. 125, 074110 (2006)
         Ga-Kr : Obtained from the ccRepo (grant-hill.group.shef.ac.uk/ccrepo) Feb. 2017
                 A. K. Wilson, D. E. Woon, K. A. Peterson, T. H. Dunning, Jr., J. Chem. Phys. 110, 7667 (1999)

================================================================================
                                        WARNINGS
                       Please study these warnings very carefully!
================================================================================


INFO   : the flag for use of the SHARK integral package has been found!

================================================================================
                                       INPUT FILE
================================================================================
NAME = trans-1,3-bivinyl-rhf.inp
|  1> ! RHF cc-pvdz pal8 NoUseSym
|  2> ! MOread
|  3> %moinp "trans-1,3-bivinyl-opt.gbw"
|  4> 
|  5> *xyz 0 1
|  6>  C   -6.64118154871840     -1.62152199820221     -0.00000009697356
|  7>  H   -6.14278421708044     -2.59598105665497     -0.00000014220472
|  8>  H   -7.73333554424968     -1.61977238029341     -0.00000042278070
|  9>  C   -5.93549956067656     -0.47904328673011      0.00000030766916
| 10>  H   -6.46384951769643      0.48219250457623      0.00000027918139
| 11>  C   -4.47901443536966     -0.41544209462766      0.00000033271928
| 12>  H   -3.95066484182954     -1.37667808135024      0.00000039582290
| 13>  C   -3.77333222954333      0.72703646535930     -0.00000006376917
| 14>  H   -4.27172926240940      1.70149564387711     -0.00000005020219
| 15>  H   -2.68117824242655      0.72528655404596     -0.00000053946240
| 16> *
| 17> 
| 18> 
| 19>                          ****END OF INPUT****
================================================================================

                       ****************************
                       * Single Point Calculation *
                       ****************************

---------------------------------
CARTESIAN COORDINATES (ANGSTROEM)
---------------------------------
  C     -6.641182   -1.621522   -0.000000
  H     -6.142784   -2.595981   -0.000000
  H     -7.733336   -1.619772   -0.000000
  C     -5.935500   -0.479043    0.000000
  H     -6.463850    0.482193    0.000000
  C     -4.479014   -0.415442    0.000000
  H     -3.950665   -1.376678    0.000000
  C     -3.773332    0.727036   -0.000000
  H     -4.271729    1.701496   -0.000000
  H     -2.681178    0.725287   -0.000001

----------------------------
CARTESIAN COORDINATES (A.U.)
----------------------------
  NO LB      ZA    FRAG     MASS         X           Y           Z
   0 C     6.0000    0    12.011  -12.550014   -3.064232   -0.000000
   1 H     1.0000    0     1.008  -11.608180   -4.905693   -0.000000
   2 H     1.0000    0     1.008  -14.613886   -3.060926   -0.000001
   3 C     6.0000    0    12.011  -11.216469   -0.905261    0.000001
   4 H     1.0000    0     1.008  -12.214905    0.911212    0.000001
   5 C     6.0000    0    12.011   -8.464111   -0.785072    0.000001
   6 H     1.0000    0     1.008   -7.465675   -2.601545    0.000001
   7 C     6.0000    0    12.011   -7.130565    1.373900   -0.000000
   8 H     1.0000    0     1.008   -8.072398    3.215361   -0.000000
   9 H     1.0000    0     1.008   -5.066693    1.370593   -0.000001

--------------------------------
INTERNAL COORDINATES (ANGSTROEM)
--------------------------------
 C      0   0   0     0.000000000000     0.00000000     0.00000000
 H      1   0   0     1.094518321813     0.00000000     0.00000000
 H      1   2   0     1.092155396964   117.17973790     0.00000000
 C      1   2   3     1.342849460816   121.20940807   180.00000148
 H      4   1   2     1.096871881111   119.50165669   179.99999609
 C      4   1   2     1.457873119266   124.20302112     0.00000000
 H      6   4   1     1.096871877279   116.29530063     0.00000000
 C      6   4   1     1.342849446383   124.20303242   179.99995867
 H      8   6   4     1.094518292660   121.20941355     0.00000000
 H      8   6   4     1.092155389020   121.61084994   180.00003158

---------------------------
INTERNAL COORDINATES (A.U.)
---------------------------
 C      0   0   0     0.000000000000     0.00000000     0.00000000
 H      1   0   0     2.068339876786     0.00000000     0.00000000
 H      1   2   0     2.063874595946   117.17973790     0.00000000
 C      1   2   3     2.537617720026   121.20940807   180.00000148
 H      4   1   2     2.072787459298   119.50165669   179.99999609
 C      4   1   2     2.754980933417   124.20302112     0.00000000
 H      6   4   1     2.072787452057   116.29530063     0.00000000
 C      6   4   1     2.537617692751   124.20303242   179.99995867
 H      8   6   4     2.068339821694   121.20941355     0.00000000
 H      8   6   4     2.063874580934   121.61084994   180.00003158

---------------------
BASIS SET INFORMATION
---------------------
There are 2 groups of distinct atoms

 Group   1 Type C   : 17s4p1d contracted to 3s2p1d pattern {881/31/1}
 Group   2 Type H   : 4s1p contracted to 2s1p pattern {31/1}

Atom   0C    basis set group =>   1
Atom   1H    basis set group =>   2
Atom   2H    basis set group =>   2
Atom   3C    basis set group =>   1
Atom   4H    basis set group =>   2
Atom   5C    basis set group =>   1
Atom   6H    basis set group =>   2
Atom   7C    basis set group =>   1
Atom   8H    basis set group =>   2
Atom   9H    basis set group =>   2
--------------------------------------------------------------------------
WARNING: There was an error initializing an OpenFabrics device.

  Local host:   cnode07
  Local device: mlx5_0
--------------------------------------------------------------------------


           ************************************************************
           *        Program running with 8 parallel MPI-processes     *
           *              working on a common directory               *
           ************************************************************
------------------------------------------------------------------------------
                           ORCA GTO INTEGRAL CALCULATION
------------------------------------------------------------------------------
------------------------------------------------------------------------------
                   ___                                                        
                  /   \      - P O W E R E D   B Y -                         
                 /     \                                                     
                 |  |  |   _    _      __       _____    __    __             
                 |  |  |  | |  | |    /  \     |  _  \  |  |  /  |          
                  \  \/   | |  | |   /    \    | | | |  |  | /  /          
                 / \  \   | |__| |  /  /\  \   | |_| |  |  |/  /          
                |  |  |   |  __  | /  /__\  \  |    /   |      \           
                |  |  |   | |  | | |   __   |  |    \   |  |\   \          
                \     /   | |  | | |  |  |  |  | |\  \  |  | \   \       
                 \___/    |_|  |_| |__|  |__|  |_| \__\ |__|  \__/        
                                                                              
                      - O R C A' S   B I G   F R I E N D -                    
                                      &                                       
                       - I N T E G R A L  F E E D E R -                       
                                                                              
 v1 FN, 2020, v2 2021                                                         
------------------------------------------------------------------------------


Reading SHARK input file trans-1,3-bivinyl-rhf.SHARKINP.tmp ... ok
----------------------
SHARK INTEGRAL PACKAGE
----------------------

Number of atoms                             ...     10
Number of basis functions                   ...     86
Number of shells                            ...     42
Maximum angular momentum                    ...      2
Integral batch strategy                     ... SHARK/LIBINT Hybrid
RI-J (if used) integral strategy            ... SPLIT-RIJ (Revised 2003 algorithm where possible)
Printlevel                                  ...      1
Contraction scheme used                     ... SEGMENTED contraction
Coulomb Range Separation                    ... NOT USED
Exchange Range Separation                   ... NOT USED
Finite Nucleus Model                        ... NOT USED
Auxiliary Coulomb fitting basis             ... NOT available
Auxiliary J/K fitting basis                 ... NOT available
Auxiliary Correlation fitting basis         ... NOT available
Auxiliary 'external' fitting basis          ... NOT available
Integral threshold                          ...     1.000000e-10
Primitive cut-off                           ...     1.000000e-11
Primitive pair pre-selection threshold      ...     1.000000e-11

Calculating pre-screening integrals         ... done (  0.0 sec) Dimension = 42
Organizing shell pair data                  ... done (  0.0 sec)
Shell pair information
Total number of shell pairs                 ...       903
Shell pairs after pre-screening             ...       896
Total number of primitive shell pairs       ...      7275
Primitive shell pairs kept                  ...      5137
          la=0 lb=0:    300 shell pairs
          la=1 lb=0:    332 shell pairs
          la=1 lb=1:    102 shell pairs
          la=2 lb=0:     96 shell pairs
          la=2 lb=1:     56 shell pairs
          la=2 lb=2:     10 shell pairs

Calculating one electron integrals          ... done (  0.0 sec)
Calculating Nuclear repulsion               ... done (  0.0 sec) ENN=    103.335139128351 Eh

SHARK setup successfully completed in   0.1 seconds

Maximum memory used throughout the entire GTOINT-calculation: 11.1 MB
[cnode07:235712] 7 more processes have sent help message help-mpi-btl-openib.txt / error in device init
[cnode07:235712] Set MCA parameter "orte_base_help_aggregate" to 0 to see all help / error messages
--------------------------------------------------------------------------
WARNING: There was an error initializing an OpenFabrics device.

  Local host:   cnode07
  Local device: mlx5_0
--------------------------------------------------------------------------


           ************************************************************
           *        Program running with 8 parallel MPI-processes     *
           *              working on a common directory               *
           ************************************************************
-------------------------------------------------------------------------------
                                 ORCA SCF
-------------------------------------------------------------------------------

------------
SCF SETTINGS
------------
Hamiltonian:
 Ab initio Hamiltonian  Method          .... Hartree-Fock(GTOs)


General Settings:
 Integral files         IntName         .... trans-1,3-bivinyl-rhf
 Hartree-Fock type      HFTyp           .... RHF
 Total Charge           Charge          ....    0
 Multiplicity           Mult            ....    1
 Number of Electrons    NEL             ....   30
 Basis Dimension        Dim             ....   86
 Nuclear Repulsion      ENuc            ....    103.3351391284 Eh

Convergence Acceleration:
 DIIS                   CNVDIIS         .... on
   Start iteration      DIISMaxIt       ....    12
   Startup error        DIISStart       ....  0.200000
   # of expansion vecs  DIISMaxEq       ....     5
   Bias factor          DIISBfac        ....   1.050
   Max. coefficient     DIISMaxC        ....  10.000
 Trust-Rad. Augm. Hess. CNVTRAH         .... auto
   Auto Start mean grad. ratio tolernc. ....  1.125000
   Auto Start start iteration           ....     1
   Auto Start num. interpolation iter.  ....    10
   Max. Number of Micro iterations      ....    16
   Max. Number of Macro iterations      .... Maxiter - #DIIS iter
   Number of Davidson start vectors     ....     2
   Converg. threshold I  (grad. norm)   ....   5.000e-05
   Converg. threshold II (energy diff.) ....   1.000e-06
   Grad. Scal. Fac. for Micro threshold ....   0.100
   Minimum threshold for Micro iter.    ....   0.010
   NR start threshold (gradient norm)   ....   0.001
   Initial trust radius                 ....   0.400
   Minimum AH scaling param. (alpha)    ....   1.000
   Maximum AH scaling param. (alpha)    .... 1000.000
   Orbital update algorithm             .... Taylor
   White noise on init. David. guess    .... on
   Maximum white noise                  ....   0.010
   Quad. conv. algorithm                .... NR
 SOSCF                  CNVSOSCF        .... on
   Start iteration      SOSCFMaxIt      ....   150
   Startup grad/error   SOSCFStart      ....  0.003300
 Level Shifting         CNVShift        .... on
   Level shift para.    LevelShift      ....    0.2500
   Turn off err/grad.   ShiftErr        ....    0.0010
 Zerner damping         CNVZerner       .... off
 Static damping         CNVDamp         .... on
   Fraction old density DampFac         ....    0.7000
   Max. Damping (<1)    DampMax         ....    0.9800
   Min. Damping (>=0)   DampMin         ....    0.0000
   Turn off err/grad.   DampErr         ....    0.1000
 Fernandez-Rico         CNVRico         .... off

SCF Procedure:
 Maximum # iterations   MaxIter         ....   125
 SCF integral mode      SCFMode         .... Direct
   Integral package                     .... SHARK and LIBINT hybrid scheme
 Reset frequency        DirectResetFreq ....    20
 Integral Threshold     Thresh          ....  1.000e-10 Eh
 Primitive CutOff       TCut            ....  1.000e-11 Eh

Convergence Tolerance:
 Convergence Check Mode ConvCheckMode   .... Total+1el-Energy
 Convergence forced     ConvForced      .... 0
 Energy Change          TolE            ....  1.000e-06 Eh
 1-El. energy change                    ....  1.000e-03 Eh
 Orbital Gradient       TolG            ....  5.000e-05
 Orbital Rotation angle TolX            ....  5.000e-05
 DIIS Error             TolErr          ....  1.000e-06


Diagonalization of the overlap matrix:
Smallest eigenvalue                        ... 2.323e-03
Time for diagonalization                   ...    0.001 sec
Threshold for overlap eigenvalues          ... 1.000e-08
Number of eigenvalues below threshold      ... 0
Time for construction of square roots      ...    0.132 sec
Total time needed                          ...    0.134 sec

---------------------
INITIAL GUESS: MOREAD
---------------------
Guess MOs are being read from file: trans-1,3-bivinyl-opt.gbw
Input Geometry matches current geometry (good)
Input basis set matches current basis set (good)
MOs were renormalized
MOs were reorthogonalized (Cholesky)
                      ------------------
                      INITIAL GUESS DONE (   0.1 sec)
                      ------------------
--------------
SCF ITERATIONS
--------------
ITER       Energy         Delta-E        Max-DP      RMS-DP      [F,P]     Damp
               ***  Starting incremental Fock matrix formation  ***
  0   -154.9134838582   0.000000000000 0.01614918  0.00137165  0.0461427 0.7000
  1   -154.9187062948  -0.005222436644 0.01395621  0.00118577  0.0339387 0.7000
                               ***Turning on DIIS***
  2   -154.9226933899  -0.003987095052 0.03577012  0.00304277  0.0248336 0.0000
  3   -154.9645807148  -0.041887324881 0.00699543  0.00060771  0.0066521 0.0000
[cnode07:235792] 7 more processes have sent help message help-mpi-btl-openib.txt / error in device init
[cnode07:235792] Set MCA parameter "orte_base_help_aggregate" to 0 to see all help / error messages
                      *** Initiating the SOSCF procedure ***
                           *** Shutting down DIIS ***
                      *** Re-Reading the Fockian *** 
                      *** Removing any level shift *** 
ITER      Energy       Delta-E        Grad      Rot      Max-DP    RMS-DP
  4   -154.94150242   0.0230782960  0.002523  0.002523  0.002229  0.000185
               *** Restarting incremental Fock matrix formation ***
  5   -154.93374724   0.0077551752  0.001083  0.001937  0.001550  0.000081
  6   -154.93376251  -0.0000152704  0.000510  0.001513  0.000946  0.000044
  7   -154.93376521  -0.0000027004  0.000059  0.000087  0.000104  0.000006
                 **** Energy Check signals convergence ****
              ***Rediagonalizing the Fockian in SOSCF/NRSCF***

               *****************************************************
               *                     SUCCESS                       *
               *           SCF CONVERGED AFTER   8 CYCLES          *
               *****************************************************


----------------
TOTAL SCF ENERGY
----------------

Total Energy       :         -154.93376527 Eh           -4215.96209 eV

Components:
Nuclear Repulsion  :          103.33513913 Eh            2811.89209 eV
Electronic Energy  :         -258.26890440 Eh           -7027.85418 eV
One Electron Energy:         -412.06622745 Eh          -11212.89210 eV
Two Electron Energy:          153.79732305 Eh            4185.03792 eV

Virial components:
Potential Energy   :         -309.53407238 Eh           -8422.85032 eV
Kinetic Energy     :          154.60030712 Eh            4206.88823 eV
Virial Ratio       :            2.00215690


---------------
SCF CONVERGENCE
---------------

  Last Energy change         ...   -5.3029e-08  Tolerance :   1.0000e-06
  Last MAX-Density change    ...    4.8618e-05  Tolerance :   1.0000e-05
  Last RMS-Density change    ...    2.2683e-06  Tolerance :   1.0000e-06
  Last Orbital Gradient      ...    4.1786e-05  Tolerance :   5.0000e-05
  Last Orbital Rotation      ...    5.5484e-05  Tolerance :   5.0000e-05

             **** THE GBW FILE WAS UPDATED (trans-1,3-bivinyl-rhf.gbw) ****
             **** DENSITY trans-1,3-bivinyl-rhf.scfp WAS UPDATED ****
             **** ENERGY FILE WAS UPDATED (trans-1,3-bivinyl-rhf.en.tmp) ****
             **** THE GBW FILE WAS UPDATED (trans-1,3-bivinyl-rhf.gbw) ****
             **** DENSITY trans-1,3-bivinyl-rhf.scfp WAS UPDATED ****
----------------
ORBITAL ENERGIES
----------------

  NO   OCC          E(Eh)            E(eV) 
   0   2.0000     -11.245227      -305.9982 
   1   2.0000     -11.244437      -305.9767 
   2   2.0000     -11.238228      -305.8077 
   3   2.0000     -11.238215      -305.8074 
   4   2.0000      -1.088870       -29.6297 
   5   2.0000      -0.996797       -27.1242 
   6   2.0000      -0.823394       -22.4057 
   7   2.0000      -0.748572       -20.3697 
   8   2.0000      -0.639064       -17.3898 
   9   2.0000      -0.629285       -17.1237 
  10   2.0000      -0.553341       -15.0572 
  11   2.0000      -0.539050       -14.6683 
  12   2.0000      -0.489362       -13.3162 
  13   2.0000      -0.441270       -12.0076 
  14   2.0000      -0.320420        -8.7191 
  15   0.0000       0.117996         3.2108 
  16   0.0000       0.201566         5.4849 
  17   0.0000       0.206028         5.6063 
  18   0.0000       0.214047         5.8245 
  19   0.0000       0.241394         6.5687 
  20   0.0000       0.268035         7.2936 
  21   0.0000       0.276140         7.5141 
  22   0.0000       0.292563         7.9610 
  23   0.0000       0.429312        11.6822 
  24   0.0000       0.440596        11.9892 
  25   0.0000       0.546066        14.8592 
  26   0.0000       0.577130        15.7045 
  27   0.0000       0.594880        16.1875 
  28   0.0000       0.674107        18.3434 
  29   0.0000       0.700180        19.0529 
  30   0.0000       0.708363        19.2755 
  31   0.0000       0.732830        19.9413 
  32   0.0000       0.759786        20.6748 
  33   0.0000       0.784085        21.3361 
  34   0.0000       0.809878        22.0379 
  35   0.0000       0.827303        22.5120 
  36   0.0000       0.865853        23.5611 
  37   0.0000       0.883355        24.0373 
  38   0.0000       0.920731        25.0544 
  39   0.0000       0.953966        25.9587 
  40   0.0000       0.982477        26.7346 
  41   0.0000       1.003124        27.2964 
  42   0.0000       1.099661        29.9233 
  43   0.0000       1.121708        30.5232 
  44   0.0000       1.171774        31.8856 
  45   0.0000       1.185594        32.2617 
  46   0.0000       1.218128        33.1469 
  47   0.0000       1.239746        33.7352 
  48   0.0000       1.239869        33.7386 
  49   0.0000       1.283593        34.9284 
  50   0.0000       1.319251        35.8986 
  51   0.0000       1.352015        36.7902 
  52   0.0000       1.448354        39.4117 
  53   0.0000       1.596963        43.4556 
  54   0.0000       1.695943        46.1489 
  55   0.0000       1.706042        46.4238 
  56   0.0000       1.731112        47.1060 
  57   0.0000       1.739728        47.3404 
  58   0.0000       1.740401        47.3587 
  59   0.0000       1.835604        49.9493 
  60   0.0000       1.873898        50.9914 
  61   0.0000       1.878617        51.1198 
  62   0.0000       1.907160        51.8965 
  63   0.0000       1.914561        52.0979 
  64   0.0000       1.936555        52.6963 
  65   0.0000       1.996108        54.3169 
  66   0.0000       2.024224        55.0819 
  67   0.0000       2.075243        56.4702 
  68   0.0000       2.148132        58.4536 
  69   0.0000       2.168734        59.0142 
  70   0.0000       2.217992        60.3546 
  71   0.0000       2.239485        60.9395 
  72   0.0000       2.413087        65.6634 
  73   0.0000       2.420675        65.8699 
  74   0.0000       2.437775        66.3352 
  75   0.0000       2.467859        67.1539 
  76   0.0000       2.533962        68.9526 
  77   0.0000       2.553937        69.4962 
  78   0.0000       2.583963        70.3132 
  79   0.0000       2.656580        72.2892 
  80   0.0000       2.803497        76.2870 
  81   0.0000       2.808254        76.4165 
  82   0.0000       3.024492        82.3006 
  83   0.0000       3.058881        83.2364 
  84   0.0000       3.346511        91.0632 
  85   0.0000       3.506731        95.4230 

                    ********************************
                    * MULLIKEN POPULATION ANALYSIS *
                    ********************************

-----------------------
MULLIKEN ATOMIC CHARGES
-----------------------
   0 C :   -0.034455
   1 H :    0.044383
   2 H :    0.053740
   3 C :   -0.090385
   4 H :    0.026717
   5 C :   -0.090385
   6 H :    0.026717
   7 C :   -0.034455
   8 H :    0.044383
   9 H :    0.053740
Sum of atomic charges:   -0.0000000

--------------------------------
MULLIKEN REDUCED ORBITAL CHARGES
--------------------------------
  0 C s       :     3.065016  s :     3.065016
      pz      :     0.998206  p :     2.912614
      px      :     0.947783
      py      :     0.966624
      dz2     :     0.002030  d :     0.056826
      dxz     :     0.003940
      dyz     :     0.009897
      dx2y2   :     0.023805
      dxy     :     0.017153
  1 H s       :     0.923665  s :     0.923665
      pz      :     0.005318  p :     0.031952
      px      :     0.007998
      py      :     0.018636
  2 H s       :     0.914152  s :     0.914152
      pz      :     0.005448  p :     0.032108
      px      :     0.022527
      py      :     0.004133
  3 C s       :     3.167495  s :     3.167495
      pz      :     0.949322  p :     2.839006
      px      :     0.902832
      py      :     0.986852
      dz2     :     0.004629  d :     0.083884
      dxz     :     0.011313
      dyz     :     0.011487
      dx2y2   :     0.029368
      dxy     :     0.027087
  4 H s       :     0.942335  s :     0.942335
      pz      :     0.005068  p :     0.030948
      px      :     0.008151
      py      :     0.017729
  5 C s       :     3.167495  s :     3.167495
      pz      :     0.949322  p :     2.839006
      px      :     0.902832
      py      :     0.986852
      dz2     :     0.004629  d :     0.083884
      dxz     :     0.011313
      dyz     :     0.011487
      dx2y2   :     0.029368
      dxy     :     0.027087
  6 H s       :     0.942335  s :     0.942335
      pz      :     0.005068  p :     0.030948
      px      :     0.008151
      py      :     0.017729
  7 C s       :     3.065016  s :     3.065016
      pz      :     0.998206  p :     2.912614
      px      :     0.947783
      py      :     0.966624
      dz2     :     0.002030  d :     0.056826
      dxz     :     0.003941
      dyz     :     0.009897
      dx2y2   :     0.023805
      dxy     :     0.017153
  8 H s       :     0.923665  s :     0.923665
      pz      :     0.005318  p :     0.031952
      px      :     0.007998
      py      :     0.018636
  9 H s       :     0.914152  s :     0.914152
      pz      :     0.005448  p :     0.032108
      px      :     0.022527
      py      :     0.004133


                     *******************************
                     * LOEWDIN POPULATION ANALYSIS *
                     *******************************

----------------------
LOEWDIN ATOMIC CHARGES
----------------------
   0 C :   -0.046829
   1 H :    0.023116
   2 H :    0.026657
   3 C :   -0.032714
   4 H :    0.029770
   5 C :   -0.032714
   6 H :    0.029770
   7 C :   -0.046829
   8 H :    0.023116
   9 H :    0.026657

-------------------------------
LOEWDIN REDUCED ORBITAL CHARGES
-------------------------------
  0 C s       :     2.843528  s :     2.843528
      pz      :     0.963170  p :     3.049555
      px      :     1.033013
      py      :     1.053373
      dz2     :     0.010804  d :     0.153745
      dxz     :     0.006664
      dyz     :     0.017081
      dx2y2   :     0.068195
      dxy     :     0.051002
  1 H s       :     0.895526  s :     0.895526
      pz      :     0.017526  p :     0.081359
      px      :     0.022388
      py      :     0.041445
  2 H s       :     0.891395  s :     0.891395
      pz      :     0.017876  p :     0.081948
      px      :     0.050404
      py      :     0.013667
  3 C s       :     2.825207  s :     2.825207
      pz      :     0.914719  p :     2.993163
      px      :     1.021619
      py      :     1.056825
      dz2     :     0.013752  d :     0.214344
      dxz     :     0.026772
      dyz     :     0.020547
      dx2y2   :     0.077960
      dxy     :     0.075313
  4 H s       :     0.892309  s :     0.892309
      pz      :     0.015645  p :     0.077921
      px      :     0.022388
      py      :     0.039888
  5 C s       :     2.825207  s :     2.825207
      pz      :     0.914719  p :     2.993163
      px      :     1.021619
      py      :     1.056824
      dz2     :     0.013752  d :     0.214344
      dxz     :     0.026772
      dyz     :     0.020547
      dx2y2   :     0.077960
      dxy     :     0.075313
  6 H s       :     0.892309  s :     0.892309
      pz      :     0.015645  p :     0.077921
      px      :     0.022388
      py      :     0.039888
  7 C s       :     2.843528  s :     2.843528
      pz      :     0.963170  p :     3.049556
      px      :     1.033013
      py      :     1.053373
      dz2     :     0.010804  d :     0.153745
      dxz     :     0.006664
      dyz     :     0.017081
      dx2y2   :     0.068195
      dxy     :     0.051002
  8 H s       :     0.895526  s :     0.895526
      pz      :     0.017526  p :     0.081359
      px      :     0.022388
      py      :     0.041445
  9 H s       :     0.891395  s :     0.891395
      pz      :     0.017876  p :     0.081948
      px      :     0.050404
      py      :     0.013667


                      *****************************
                      * MAYER POPULATION ANALYSIS *
                      *****************************

  NA   - Mulliken gross atomic population
  ZA   - Total nuclear charge
  QA   - Mulliken gross atomic charge
  VA   - Mayer's total valence
  BVA  - Mayer's bonded valence
  FA   - Mayer's free valence

  ATOM       NA         ZA         QA         VA         BVA        FA
  0 C      6.0345     6.0000    -0.0345     3.9484     3.9484    -0.0000
  1 H      0.9556     1.0000     0.0444     0.9830     0.9830    -0.0000
  2 H      0.9463     1.0000     0.0537     0.9759     0.9759     0.0000
  3 C      6.0904     6.0000    -0.0904     4.0062     4.0062    -0.0000
  4 H      0.9733     1.0000     0.0267     0.9901     0.9901     0.0000
  5 C      6.0904     6.0000    -0.0904     4.0062     4.0062    -0.0000
  6 H      0.9733     1.0000     0.0267     0.9901     0.9901     0.0000
  7 C      6.0345     6.0000    -0.0345     3.9484     3.9484     0.0000
  8 H      0.9556     1.0000     0.0444     0.9830     0.9830    -0.0000
  9 H      0.9463     1.0000     0.0537     0.9759     0.9759    -0.0000

  Mayer bond orders larger than 0.100000
B(  0-C ,  1-H ) :   0.9680 B(  0-C ,  2-H ) :   0.9694 B(  0-C ,  3-C ) :   1.9535 
B(  3-C ,  4-H ) :   0.9737 B(  3-C ,  5-C ) :   1.0768 B(  5-C ,  6-H ) :   0.9737 
B(  5-C ,  7-C ) :   1.9535 B(  7-C ,  8-H ) :   0.9680 B(  7-C ,  9-H ) :   0.9694 


-------
TIMINGS
-------

Total SCF time: 0 days 0 hours 0 min 8 sec 

Total time                  ....       8.769 sec
Sum of individual times     ....       4.625 sec  ( 52.7%)

Fock matrix formation       ....       3.020 sec  ( 34.4%)
Diagonalization             ....       0.208 sec  (  2.4%)
Density matrix formation    ....       0.001 sec  (  0.0%)
Population analysis         ....       0.325 sec  (  3.7%)
Initial guess               ....       0.106 sec  (  1.2%)
Orbital Transformation      ....       0.000 sec  (  0.0%)
Orbital Orthonormalization  ....       0.001 sec  (  0.0%)
DIIS solution               ....       0.662 sec  (  7.5%)
SOSCF solution              ....       0.305 sec  (  3.5%)

Maximum memory used throughout the entire SCF-calculation: 225.6 MB

-------------------------   --------------------
FINAL SINGLE POINT ENERGY      -154.933765267416
-------------------------   --------------------


                            ***************************************
                            *     ORCA property calculations      *
                            ***************************************

                                    ---------------------
                                    Active property flags
                                    ---------------------
   (+) Dipole Moment


------------------------------------------------------------------------------
                       ORCA ELECTRIC PROPERTIES CALCULATION
------------------------------------------------------------------------------

Dipole Moment Calculation                       ... on
Quadrupole Moment Calculation                   ... off
Polarizability Calculation                      ... off
GBWName                                         ... trans-1,3-bivinyl-rhf.gbw
Electron density file                           ... trans-1,3-bivinyl-rhf.scfp
The origin for moment calculation is the CENTER OF MASS  = (-9.840290, -0.845166  0.000000)

-------------
DIPOLE MOMENT
-------------
                                X             Y             Z
Electronic contribution:     -0.00000       0.00000       0.00000
Nuclear contribution   :      0.00000      -0.00000      -0.00000
                        -----------------------------------------
Total Dipole Moment    :     -0.00000      -0.00000      -0.00000
                        -----------------------------------------
Magnitude (a.u.)       :      0.00000
Magnitude (Debye)      :      0.00000



--------------------
Rotational spectrum 
--------------------
 
Rotational constants in cm-1:     1.397081     0.146782     0.132827 
Rotational constants in MHz : 41883.422262  4400.413202  3982.046052 

 Dipole components along the rotational axes: 
x,y,z [a.u.] :    -0.000000    -0.000000    -0.000000 
x,y,z [Debye]:    -0.000000    -0.000000    -0.000000 

 
--------------------------------------------------------------------------
WARNING: There was an error initializing an OpenFabrics device.

  Local host:   cnode07
  Local device: mlx5_0
--------------------------------------------------------------------------
[cnode07:235869] 7 more processes have sent help message help-mpi-btl-openib.txt / error in device init
[cnode07:235869] Set MCA parameter "orte_base_help_aggregate" to 0 to see all help / error messages

Timings for individual modules:

Sum of individual times         ...       15.470 sec (=   0.258 min)
GTO integral calculation        ...        4.509 sec (=   0.075 min)  29.1 %
SCF iterations                  ...       10.961 sec (=   0.183 min)  70.9 %
                             ****ORCA TERMINATED NORMALLY****
TOTAL RUN TIME: 0 days 0 hours 0 minutes 21 seconds 45 msec

Sender: Unischeduler System <lcz@mgt01>
Subject: Job 123328: <#!/bin/bash
#BSUB -J intel
#BSUB -o trans-1,3-bivinyl-rhf.out
#BSUB -n 8
#BSUB -q cqueue
#BSUB -R span[hosts=1]
export LD_LIBRARY_PATH=/apps/software/openmpi-4.1.1/lib:/apps/software/orca_5_0_0:$LD_LIBRARY_PATH
export PATH=/apps/software/openmpi-4.1.1/bin:/apps/software/orca_5_0_0:$PATH
/apps/software/orca_5_0_0/orca trans-1,3-bivinyl-rhf.inp >& trans-1,3-bivinyl-rhf.out> Done

Job <#!/bin/bash
#BSUB -J intel
#BSUB -o trans-1,3-bivinyl-rhf.out
#BSUB -n 8
#BSUB -q cqueue
#BSUB -R span[hosts=1]
export LD_LIBRARY_PATH=/apps/software/openmpi-4.1.1/lib:/apps/software/orca_5_0_0:$LD_LIBRARY_PATH
export PATH=/apps/software/openmpi-4.1.1/bin:/apps/software/orca_5_0_0:$PATH
/apps/software/orca_5_0_0/orca trans-1,3-bivinyl-rhf.inp >& trans-1,3-bivinyl-rhf.out> was submitted from host <mgt01> by user <lcz>.
Job was executed on host(s) <8*cnode07>, in queue <cqueue>, as user <lcz>.
</apps/users/lcz> was used as the home directory.
</apps/users/lcz/exe9/task1/orca/bivinyl> was used as the working directory.
Started at 2022-04-23 12:43:37
Results reported at 2022-04-23 12:44:00

Your job looked like:

------------------------------------------------------------
# User input
#!/bin/bash
#BSUB -J intel
#BSUB -o trans-1,3-bivinyl-rhf.out
#BSUB -n 8
#BSUB -q cqueue
#BSUB -R span[hosts=1]
export LD_LIBRARY_PATH=/apps/software/openmpi-4.1.1/lib:/apps/software/orca_5_0_0:$LD_LIBRARY_PATH
export PATH=/apps/software/openmpi-4.1.1/bin:/apps/software/orca_5_0_0:$PATH
/apps/software/orca_5_0_0/orca trans-1,3-bivinyl-rhf.inp >& trans-1,3-bivinyl-rhf.out
------------------------------------------------------------

Successfully completed.

Resource usage summary:

    CPU time   :           30.68 sec.
    Max Memory :               715 MB
    Max Processes  :              13


The output (if any) follows:

