
                                        *****************
                                        * O   R   C   A *
                                        *****************

                                            #,                                       
                                            ###                                      
                                            ####                                     
                                            #####                                    
                                            ######                                   
                                           ########,                                 
                                     ,,################,,,,,                         
                               ,,#################################,,                 
                          ,,##########################################,,             
                       ,#########################################, ''#####,          
                    ,#############################################,,   '####,        
                  ,##################################################,,,,####,       
                ,###########''''           ''''###############################       
              ,#####''   ,,,,##########,,,,          '''####'''          '####       
            ,##' ,,,,###########################,,,                        '##       
           ' ,,###''''                  '''############,,,                           
         ,,##''                                '''############,,,,        ,,,,,,###''
      ,#''                                            '''#######################'''  
     '                                                          ''''####''''         
             ,#######,   #######,   ,#######,      ##                                
            ,#'     '#,  ##    ##  ,#'     '#,    #''#        ######   ,####,        
            ##       ##  ##   ,#'  ##            #'  '#       #        #'  '#        
            ##       ##  #######   ##           ,######,      #####,   #    #        
            '#,     ,#'  ##    ##  '#,     ,#' ,#      #,         ##   #,  ,#        
             '#######'   ##     ##  '#######'  #'      '#     #####' # '####'        



                  #######################################################
                  #                        -***-                        #
                  #          Department of theory and spectroscopy      #
                  #    Directorship and core code : Frank Neese         #
                  #        Max Planck Institute fuer Kohlenforschung    #
                  #                Kaiser Wilhelm Platz 1               #
                  #                 D-45470 Muelheim/Ruhr               #
                  #                      Germany                        #
                  #                                                     #
                  #                  All rights reserved                #
                  #                        -***-                        #
                  #######################################################


                         Program Version 5.0.0 -  RELEASE  -
                                (SVN: $Rev: 19529$)
                ($Date: 2021-06-28 11:36:33 +0200 (Mo, 28 Jun 2021) $)


 With contributions from (in alphabetic order):
   Daniel Aravena         : Magnetic Suceptibility
   Michael Atanasov       : Ab Initio Ligand Field Theory (pilot matlab implementation)
   Alexander A. Auer      : GIAO ZORA, VPT2 properties, NMR spectrum
   Ute Becker             : Parallelization
   Giovanni Bistoni       : ED, misc. LED, open-shell LED, HFLD
   Martin Brehm           : Molecular dynamics
   Dmytro Bykov           : SCF Hessian
   Vijay G. Chilkuri      : MRCI spin determinant printing, contributions to CSF-ICE
   Dipayan Datta          : RHF DLPNO-CCSD density
   Achintya Kumar Dutta   : EOM-CC, STEOM-CC
   Dmitry Ganyushin       : Spin-Orbit,Spin-Spin,Magnetic field MRCI
   Miquel Garcia          : C-PCM Hessian, Gaussian charge scheme
   Yang Guo               : DLPNO-NEVPT2, F12-NEVPT2, CIM, IAO-localization
   Andreas Hansen         : Spin unrestricted coupled pair/coupled cluster methods
   Benjamin Helmich-Paris : MC-RPA, TRAH-SCF, COSX integrals
   Lee Huntington         : MR-EOM, pCC
   Robert Izsak           : Overlap fitted RIJCOSX, COSX-SCS-MP3, EOM
   Marcus Kettner         : VPT2
   Christian Kollmar      : KDIIS, OOCD, Brueckner-CCSD(T), CCSD density, CASPT2, CASPT2-K
   Simone Kossmann        : Meta GGA functionals, TD-DFT gradient, OOMP2, MP2 Hessian
   Martin Krupicka        : Initial AUTO-CI
   Lucas Lang             : DCDCAS
   Marvin Lechner         : AUTO-CI (C++ implementation), FIC-MRCC
   Dagmar Lenk            : GEPOL surface, SMD
   Dimitrios Liakos       : Extrapolation schemes; Compound Job, initial MDCI parallelization
   Dimitrios Manganas     : Further ROCIS development; embedding schemes
   Dimitrios Pantazis     : SARC Basis sets
   Anastasios Papadopoulos: AUTO-CI, single reference methods and gradients
   Taras Petrenko         : DFT Hessian,TD-DFT gradient, ASA, ECA, R-Raman, ABS, FL, XAS/XES, NRVS
   Peter Pinski           : DLPNO-MP2, DLPNO-MP2 Gradient
   Christoph Reimann      : Effective Core Potentials
   Marius Retegan         : Local ZFS, SOC
   Christoph Riplinger    : Optimizer, TS searches, QM/MM, DLPNO-CCSD(T), (RO)-DLPNO pert. Triples
   Tobias Risthaus        : Range-separated hybrids, TD-DFT gradient, RPA, STAB
   Michael Roemelt        : Original ROCIS implementation
   Masaaki Saitow         : Open-shell DLPNO-CCSD energy and density
   Barbara Sandhoefer     : DKH picture change effects
   Avijit Sen             : IP-ROCIS
   Kantharuban Sivalingam : CASSCF convergence, NEVPT2, FIC-MRCI
   Bernardo de Souza      : ESD, SOC TD-DFT
   Georgi Stoychev        : AutoAux, RI-MP2 NMR
   Willem Van den Heuvel  : Paramagnetic NMR
   Boris Wezisla          : Elementary symmetry handling
   Frank Wennmohs         : Technical directorship


 We gratefully acknowledge several colleagues who have allowed us to
 interface, adapt or use parts of their codes:
   Stefan Grimme, W. Hujo, H. Kruse, P. Pracht,  : VdW corrections, initial TS optimization,
                  C. Bannwarth, S. Ehlert          DFT functionals, gCP, sTDA/sTD-DF
   Ed Valeev, F. Pavosevic, A. Kumar             : LibInt (2-el integral package), F12 methods
   Garnet Chan, S. Sharma, J. Yang, R. Olivares  : DMRG
   Ulf Ekstrom                                   : XCFun DFT Library
   Mihaly Kallay                                 : mrcc  (arbitrary order and MRCC methods)
   Jiri Pittner, Ondrej Demel                    : Mk-CCSD
   Frank Weinhold                                : gennbo (NPA and NBO analysis)
   Christopher J. Cramer and Donald G. Truhlar   : smd solvation model
   Lars Goerigk                                  : TD-DFT with DH, B97 family of functionals
   V. Asgeirsson, H. Jonsson                     : NEB implementation
   FAccTs GmbH                                   : IRC, NEB, NEB-TS, DLPNO-Multilevel, CI-OPT
                                                   MM, QMMM, 2- and 3-layer-ONIOM, Crystal-QMMM,
                                                   LR-CPCM, SF, NACMEs, symmetry and pop. for TD-DFT,
                                                   nearIR, NL-DFT gradient (VV10), updates on ESD,
                                                   ML-optimized integration grids
   S Lehtola, MJT Oliveira, MAL Marques          : LibXC Library
   Liviu Ungur et al                             : ANISO software


 Your calculation uses the libint2 library for the computation of 2-el integrals
 For citations please refer to: http://libint.valeyev.net

 Your ORCA version has been built with support for libXC version: 5.1.0
 For citations please refer to: https://tddft.org/programs/libxc/

 This ORCA versions uses:
   CBLAS   interface :  Fast vector & matrix operations
   LAPACKE interface :  Fast linear algebra routines
   SCALAPACK package :  Parallel linear algebra routines
   Shared memory     :  Shared parallel matrices
   BLAS/LAPACK       :  OpenBLAS 0.3.15  USE64BITINT DYNAMIC_ARCH NO_AFFINITY SkylakeX SINGLE_THREADED
        Core in use  :  SkylakeX
   Copyright (c) 2011-2014, The OpenBLAS Project


================================================================================

----- Orbital basis set information -----
Your calculation utilizes the basis: def2-TZVP
   F. Weigend and R. Ahlrichs, Phys. Chem. Chem. Phys. 7, 3297 (2005).

================================================================================
                                        WARNINGS
                       Please study these warnings very carefully!
================================================================================


INFO   : the flag for use of the SHARK integral package has been found!

================================================================================
                                       INPUT FILE
================================================================================
NAME = /scratch/RC-highspin_970/RC-highspin.inp
|  1> ! UHF def2-TZVP Slowconv NoRI VeryTightSCF
|  2> 
|  3> %pal
|  4>     nprocs  16
|  5> end
|  6> 
|  7> %scf
|  8>     MaxIter         500
|  9> end
| 10> 
| 11> *xyz +1 12
| 12>  C		41.75403		53.28594		36.47089
| 13>  N		42.78753		53.11575		35.57581
| 14>  H		43.16994		53.82901		34.93449
| 15>  C		43.13114		51.81325		35.56784
| 16>  H		43.90950		51.37773		34.94414
| 17>  N		42.37607		51.13571		36.42691
| 18>  C		41.50665		52.03904		37.00144
| 19>  H		40.82544		51.73164		37.79505
| 20>  C		40.09202		47.27196		33.79593
| 21>  N		40.01563		48.58847		33.38565
| 22>  H		39.43866		49.00474		32.64677
| 23>  C		40.81932		49.32188		34.18498
| 24>  H		40.95055		50.39694		34.07925
| 25>  N		41.40562		48.54888		35.08628
| 26>  C		40.96397		47.26826		34.85989
| 27>  H		41.28483		46.44894		35.49587
| 28>  C		38.24865		48.45183		37.81335
| 29>  H		38.06635		49.38048		37.25970
| 30>  H		37.98920		48.64643		38.86583
| 31>  C		39.73354		48.12878		37.79602
| 32>  O		40.09424		46.93213		38.07281
| 33>  O		40.52803		49.07737		37.61504
| 34>  C		38.64939		43.85153		40.73232
| 35>  N		39.75318		43.46223		41.46909
| 36>  H		39.79405		42.88321		42.31374
| 37>  C		40.85619		43.95040		40.87085
| 38>  H		41.86208		43.73437		41.21668
| 39>  N		40.53337		44.65182		39.79100
| 40>  C		39.15956		44.58428		39.68656
| 41>  H		38.64310		45.07085		38.86947
| 42>  C		42.78301		43.20389		35.50791
| 43>  N		41.70402		42.56435		36.07633
| 44>  H		41.38662		41.60923		35.87328
| 45>  C		41.22751		43.34662		37.06020
| 46>  H		40.41347		43.06024		37.71905
| 47>  N		41.93585		44.46949		37.14463
| 48>  C		42.92016		44.39135		36.18173
| 49>  H		43.65411		45.17925		36.03284
| 50>  C		45.76587		48.09327		34.01347
| 51>  H		45.12996		47.64758		33.22625
| 52>  H		46.66030		47.46138		34.10695
| 53>  C		44.95577		48.01686		35.29973
| 54>  O		44.14613		48.94934		35.56215
| 55>  O		45.08740		46.97457		36.01411
| 56>  Fe		42.54033		49.05049		36.87039
| 57>  Fe		41.81627		46.03465		38.62397
| 58>  O		42.83867		47.18229		37.39246
| 59>  H		43.73492		46.94286		37.02348
| 60>  C		43.49167		47.06037		40.65787
| 61>  C		43.62987		47.67506		42.05581
| 62>  C		45.10300		47.59033		42.50474
| 63>  C		45.62301		46.15243		42.46240
| 64>  C		45.40189		45.47910		41.08480
| 65>  C		43.92995		45.59891		40.70191
| 66>  O		42.19103		47.12374		40.15874
| 67>  O		42.77905		47.01209		42.97498
| 68>  O		45.28716		48.11554		43.80319
| 69>  O		46.99767		46.17794		42.81101
| 70>  O		45.74511		44.11656		41.09014
| 71>  O		43.60430		45.05282		39.42323
| 72>  H		44.17197		47.60667		39.96927
| 73>  H		43.37341		48.74685		41.99147
| 74>  H		45.70505		48.16527		41.77049
| 75>  H		45.03923		45.57203		43.19495
| 76>  H		46.01899		46.03720		40.34589
| 77>  H		43.33990		45.09204		41.48188
| 78>  H		42.10859		47.68790		43.28977
| 79>  H		45.23130		49.11516		43.72228
| 80>  H		47.38229		45.25422		42.73309
| 81>  H		46.61333		43.98248		41.55557
| 82>  H		43.51869		44.03919		39.45235
| 83>  O		42.87964		49.71258		38.89705
| 84>  O		44.05578		49.61518		38.40447
| 85>  H		41.30382		54.25088		36.70388
| 86>  H		39.55092		46.42585		33.37239
| 87>  H		37.60102		47.66437		37.42791
| 88>  H		37.60539		43.64548		40.96829
| 89>  H		43.42804		42.77098		34.74333
| 90>  H		46.04434		49.08634		33.66087
| 91> *
| 92> 
| 93>                          ****END OF INPUT****
================================================================================

                       ****************************
                       * Single Point Calculation *
                       ****************************

---------------------------------
CARTESIAN COORDINATES (ANGSTROEM)
---------------------------------
  C     41.754030   53.285940   36.470890
  N     42.787530   53.115750   35.575810
  H     43.169940   53.829010   34.934490
  C     43.131140   51.813250   35.567840
  H     43.909500   51.377730   34.944140
  N     42.376070   51.135710   36.426910
  C     41.506650   52.039040   37.001440
  H     40.825440   51.731640   37.795050
  C     40.092020   47.271960   33.795930
  N     40.015630   48.588470   33.385650
  H     39.438660   49.004740   32.646770
  C     40.819320   49.321880   34.184980
  H     40.950550   50.396940   34.079250
  N     41.405620   48.548880   35.086280
  C     40.963970   47.268260   34.859890
  H     41.284830   46.448940   35.495870
  C     38.248650   48.451830   37.813350
  H     38.066350   49.380480   37.259700
  H     37.989200   48.646430   38.865830
  C     39.733540   48.128780   37.796020
  O     40.094240   46.932130   38.072810
  O     40.528030   49.077370   37.615040
  C     38.649390   43.851530   40.732320
  N     39.753180   43.462230   41.469090
  H     39.794050   42.883210   42.313740
  C     40.856190   43.950400   40.870850
  H     41.862080   43.734370   41.216680
  N     40.533370   44.651820   39.791000
  C     39.159560   44.584280   39.686560
  H     38.643100   45.070850   38.869470
  C     42.783010   43.203890   35.507910
  N     41.704020   42.564350   36.076330
  H     41.386620   41.609230   35.873280
  C     41.227510   43.346620   37.060200
  H     40.413470   43.060240   37.719050
  N     41.935850   44.469490   37.144630
  C     42.920160   44.391350   36.181730
  H     43.654110   45.179250   36.032840
  C     45.765870   48.093270   34.013470
  H     45.129960   47.647580   33.226250
  H     46.660300   47.461380   34.106950
  C     44.955770   48.016860   35.299730
  O     44.146130   48.949340   35.562150
  O     45.087400   46.974570   36.014110
  Fe    42.540330   49.050490   36.870390
  Fe    41.816270   46.034650   38.623970
  O     42.838670   47.182290   37.392460
  H     43.734920   46.942860   37.023480
  C     43.491670   47.060370   40.657870
  C     43.629870   47.675060   42.055810
  C     45.103000   47.590330   42.504740
  C     45.623010   46.152430   42.462400
  C     45.401890   45.479100   41.084800
  C     43.929950   45.598910   40.701910
  O     42.191030   47.123740   40.158740
  O     42.779050   47.012090   42.974980
  O     45.287160   48.115540   43.803190
  O     46.997670   46.177940   42.811010
  O     45.745110   44.116560   41.090140
  O     43.604300   45.052820   39.423230
  H     44.171970   47.606670   39.969270
  H     43.373410   48.746850   41.991470
  H     45.705050   48.165270   41.770490
  H     45.039230   45.572030   43.194950
  H     46.018990   46.037200   40.345890
  H     43.339900   45.092040   41.481880
  H     42.108590   47.687900   43.289770
  H     45.231300   49.115160   43.722280
  H     47.382290   45.254220   42.733090
  H     46.613330   43.982480   41.555570
  H     43.518690   44.039190   39.452350
  O     42.879640   49.712580   38.897050
  O     44.055780   49.615180   38.404470
  H     41.303820   54.250880   36.703880
  H     39.550920   46.425850   33.372390
  H     37.601020   47.664370   37.427910
  H     37.605390   43.645480   40.968290
  H     43.428040   42.770980   34.743330
  H     46.044340   49.086340   33.660870

----------------------------
CARTESIAN COORDINATES (A.U.)
----------------------------
  NO LB      ZA    FRAG     MASS         X           Y           Z
   0 C     6.0000    0    12.011   78.903682  100.695833   68.919994
   1 N     7.0000    0    14.007   80.856714  100.374221   67.228538
   2 H     1.0000    0     1.008   81.579364  101.722087   66.016619
   3 C     6.0000    0    12.011   81.506042   97.912853   67.213477
   4 H     1.0000    0     1.008   82.976930   97.089839   66.034855
   5 N     7.0000    0    14.007   80.079167   96.632488   68.836884
   6 C     6.0000    0    12.011   78.436201   98.339534   69.922588
   7 H     1.0000    0     1.008   77.148901   97.758632   71.422294
   8 C     6.0000    0    12.011   75.762938   89.331058   63.865052
   9 N     7.0000    0    14.007   75.618582   91.818902   63.089735
  10 H     1.0000    0     1.008   74.528266   92.605538   61.693454
  11 C     6.0000    0    12.011   77.137336   93.204846   64.600250
  12 H     1.0000    0     1.008   77.385325   95.236415   64.400449
  13 N     7.0000    0    14.007   78.245282   91.744087   66.303460
  14 C     6.0000    0    12.011   77.410685   89.324066   65.875645
  15 H     1.0000    0     1.008   78.017022   87.775776   67.077473
  16 C     6.0000    0    12.011   72.279473   91.560689   71.456876
  17 H     1.0000    0     1.008   71.934976   93.315584   70.410629
  18 H     1.0000    0     1.008   71.789184   91.928430   73.445775
  19 C     6.0000    0    12.011   75.085509   90.950213   71.424127
  20 O     8.0000    0    15.999   75.767133   88.688873   71.947184
  21 O     8.0000    0    15.999   76.586877   92.742789   71.082124
  22 C     6.0000    0    12.011   73.036762   82.867382   76.972930
  23 N     7.0000    0    14.007   75.122623   82.131712   78.365223
  24 H     1.0000    0     1.008   75.199856   81.037523   79.961380
  25 C     6.0000    0    12.011   77.207010   83.054219   77.234713
  26 H     1.0000    0     1.008   79.107867   82.645982   77.888237
  27 N     7.0000    0    14.007   76.596969   84.379711   75.194093
  28 C     6.0000    0    12.011   74.000844   84.252079   74.996730
  29 H     1.0000    0     1.008   73.024876   85.171563   73.452653
  30 C     6.0000    0    12.011   80.848172   81.643520   67.100225
  31 N     7.0000    0    14.007   78.809176   80.434965   68.174384
  32 H     1.0000    0     1.008   78.209377   78.630049   67.790675
  33 C     6.0000    0    12.011   77.908703   81.913241   70.033628
  34 H     1.0000    0     1.008   76.370390   81.372061   71.278675
  35 N     7.0000    0    14.007   79.247272   84.035157   70.193178
  36 C     6.0000    0    12.011   81.107348   83.887494   68.373561
  37 H     1.0000    0     1.008   82.494313   85.376409   68.092199
  38 C     6.0000    0    12.011   86.484961   90.883109   64.276143
  39 H     1.0000    0     1.008   85.283265   90.040877   62.788513
  40 H     1.0000    0     1.008   88.175188   89.689010   64.452795
  41 C     6.0000    0    12.011   84.954093   90.738715   66.706822
  42 O     8.0000    0    15.999   83.424096   92.500847   67.202724
  43 O     8.0000    0    15.999   85.202838   88.769073   68.056805
  44 Fe   26.0000    0    55.850   80.389573   92.691993   69.674940
  45 Fe   26.0000    0    55.850   79.021298   86.992881   72.988726
  46 O     8.0000    0    15.999   80.953354   89.161606   70.661509
  47 H     1.0000    0     1.008   82.647021   88.709149   69.964238
  48 C     6.0000    0    12.011   82.187345   88.931211   76.832239
  49 C     6.0000    0    12.011   82.448506   90.092807   79.473963
  50 C     6.0000    0    12.011   85.232318   89.932690   80.322318
  51 C     6.0000    0    12.011   86.214994   87.215453   80.242307
  52 C     6.0000    0    12.011   85.797138   85.943044   77.639020
  53 C     6.0000    0    12.011   83.015575   86.169452   76.915463
  54 O     8.0000    0    15.999   79.729492   89.050963   75.889020
  55 O     8.0000    0    15.999   80.840689   88.839975   81.210943
  56 O     8.0000    0    15.999   85.580330   90.925193   82.776033
  57 O     8.0000    0    15.999   88.812725   87.263660   80.901084
  58 O     8.0000    0    15.999   86.445730   83.368216   77.649111
  59 O     8.0000    0    15.999   82.400185   85.137491   74.499108
  60 H     1.0000    0     1.008   83.472926   89.963568   75.530974
  61 H     1.0000    0     1.008   81.963866   92.118196   79.352378
  62 H     1.0000    0     1.008   86.370027   91.019169   78.934787
  63 H     1.0000    0     1.008   85.111810   86.118656   81.626626
  64 H     1.0000    0     1.008   86.963288   86.997700   76.242683
  65 H     1.0000    0     1.008   81.900542   85.211606   78.389393
  66 H     1.0000    0     1.008   79.573703   90.117071   81.805810
  67 H     1.0000    0     1.008   85.474770   92.814201   82.623135
  68 H     1.0000    0     1.008   89.539552   85.518082   80.753837
  69 H     1.0000    0     1.008   88.086428   83.114842   78.528647
  70 H     1.0000    0     1.008   82.238406   83.222008   74.554137
  71 O     8.0000    0    15.999   81.030776   93.943162   73.504772
  72 O     8.0000    0    15.999   83.253359   93.759102   72.573931
  73 H     1.0000    0     1.008   78.052908  102.519306   69.360281
  74 H     1.0000    0     1.008   74.740407   87.732142   63.064678
  75 H     1.0000    0     1.008   71.055630   90.072606   70.728500
  76 H     1.0000    0     1.008   71.063888   82.478004   77.418848
  77 H     1.0000    0     1.008   82.067102   80.825439   65.655379
  78 H     1.0000    0     1.008   87.011193   92.759740   63.609826

--------------------------------
INTERNAL COORDINATES (ANGSTROEM)
--------------------------------
 C      0   0   0     0.000000000000     0.00000000     0.00000000
 N      1   0   0     1.377771785348     0.00000000     0.00000000
 H      2   1   0     1.032602817205   126.58093697     0.00000000
 C      2   1   3     1.347084853675   108.33788107   186.56414711
 H      4   2   1     1.088358236060   124.94092569   179.01272765
 N      4   2   1     1.329357898160   110.12685485   359.37163556
 C      1   2   3     1.377475871622   105.85007040   173.97264832
 H      7   1   2     1.090118643176   130.38195850   174.93535710
 C      6   4   2     5.202643964889   107.52200065   124.37117524
 N      9   6   4     1.381073383496    57.76316362   307.03416819
 H     10   9   6     1.025728398846   129.19527261   189.28641596
 C     10   9   6     1.350087513126   108.00047858     6.46307726
 H     12  10   9     1.088188471452   123.43159561   179.76756169
 N     12  10   9     1.324242568414   110.45202924   359.92071951
 C     14  12  10     1.373424456969   106.84142857     0.00000000
 H     15  14  12     1.085682717188   120.80185626   181.79155332
 C      8   7   1     4.171011295861   127.66053302   135.29415718
 H     17   8   7     1.096427122521    55.56255026   283.91710298
 H     17   8   7     1.101316309196    90.61814052   173.50441556
 C     17   8   7     1.519723640502    64.11776558    65.77696128
 O     20  17   8     1.280112657777   118.13559967   165.40727013
 O     20  17   8     1.250516336799   117.46259986   350.91870970
 C     21  20  17     4.318643458611   134.88629437   325.52586168
 N     23  21  20     1.383017312618   105.17933540   232.27176641
 H     24  23  21     1.024874694682   129.04298736   167.65962428
 C     24  23  21     1.346414537429   108.36455630   346.01994485
 H     26  24  23     1.085394878328   123.05738800   183.95497063
 N     26  24  23     1.327508490105   110.71902908     0.74577281
 C     23  21  20     1.375067259810    13.44650218   141.15482142
 H     29  23  24     1.082181761351   129.54997528   179.62448834
 C     16  15  14     3.574218484718   144.19472548   233.92256255
 N     31  16  15     1.377073755505    95.42881426   240.81701129
 H     32  31  16     1.026755217615   126.34191021   145.17367077
 C     32  31  16     1.344250092022   108.03504931   318.02641137
 H     34  32  31     1.085706198057   123.80958628   183.94192504
 N     34  32  31     1.330304858820   110.42004226     0.78898569
 C     31  16  15     1.372189770586    42.08686156   132.71642141
 H     37  31  16     1.087031390807   128.86337814   260.05332573
 C      5   4   2     3.885863316871   144.79888545   179.70531553
 H     39   5   4     1.105774132723   103.67724528    86.39374334
 H     39   5   4     1.099103501678   148.68571863   257.42868086
 C     39   5   4     1.522026703347    65.52866967   344.82385999
 O     42  39   5     1.262497578770   118.67970913    11.79784803
 O     42  39   5     1.270446254432   117.46742418   188.19198391
 Fe    43  42  39     2.073720535680   131.58669120   162.06472392
 Fe    21  20  17     2.018572519604   135.64640486   197.55880460
 O     45  43  42     1.962583776683    90.21046891   358.56044831
 H     47  45  43     0.998367180851   105.45253418    12.50310723
 C     46  21  20     2.827687374587   122.72262870    46.72792227
 C     49  46  21     1.533355562060   148.71284277    43.98304763
 C     50  49  46     1.542345394100   109.23395238   165.08655102
 C     51  50  49     1.529627237499   111.61001690   304.14886839
 C     52  51  50     1.549209186424   112.62238657    53.29416366
 C     53  52  51     1.525636441555   109.07136381   306.63348847
 O     49  46  21     1.394564779205    37.48164919    18.80980679
 O     50  49  46     1.417144093662   110.46747608    42.67455777
 O     51  50  49     1.412704092229   111.81525639   181.35665540
 O     52  51  50     1.418403964955   107.80417340   176.57866763
 O     53  52  51     1.405113424461   112.53302265   186.51922930
 O     54  53  52     1.428035277225   114.50078959   177.97882171
 H     49  46  21     1.111495272145    95.46964390   264.31686653
 H     50  49  46     1.103922629218   108.36901690   281.31402922
 H     51  50  49     1.110019490189   107.28039516    60.46778938
 H     52  51  50     1.101949522846   107.25453381   296.25786804
 H     53  52  51     1.112778508105   107.05757597    64.68112145
 H     54  53  52     1.101557715374   107.63547122   300.13431883
 H     56  50  49     1.002660716195   106.84444333   243.87505165
 H     57  51  50     1.004443583334   106.78038232   285.56597261
 H     58  52  51     1.003624785067   109.61980005   183.70577862
 H     59  53  52     0.994187356437   110.23506647   315.19218541
 H     60  54  53     1.017655552434   111.99067295    79.10155845
 O     45  43  42     2.158899071240   119.04381975    89.87818513
 O     72  45  43     1.278838189921    76.09011709   352.93901001
 H      1   2   3     1.089992012723   123.92116694   351.11328757
 H      9   6   4     1.089989666786   172.27641818   179.98391940
 H     17   8   7     1.089991679831   159.00254363   333.03864267
 H     23  21  20     1.089988276726   126.05841606    36.27778793
 H     31  16  15     1.089980433494   127.32132727    23.08594335
 H     39   5   4     1.089981800674    55.21100051   187.15060506

---------------------------
INTERNAL COORDINATES (A.U.)
---------------------------
 C      0   0   0     0.000000000000     0.00000000     0.00000000
 N      1   0   0     2.603611349351     0.00000000     0.00000000
 H      2   1   0     1.951336529633   126.58093697     0.00000000
 C      2   1   3     2.545621452599   108.33788107   186.56414711
 H      4   2   1     2.056699001751   124.94092569   179.01272765
 N      4   2   1     2.512122361487   110.12685485   359.37163556
 C      1   2   3     2.603052153450   105.85007040   173.97264832
 H      7   1   2     2.060025689085   130.38195850   174.93535710
 C      6   4   2     9.831572265939   107.52200065   124.37117524
 N      9   6   4     2.609850465655    57.76316362   307.03416819
 H     10   9   6     1.938345761605   129.19527261   189.28641596
 C     10   9   6     2.551295656636   108.00047858     6.46307726
 H     12  10   9     2.056378193134   123.43159561   179.76756169
 N     12  10   9     2.502455789183   110.45202924   359.92071951
 C     14  12  10     2.595396089301   106.84142857     0.00000000
 H     15  14  12     2.051643003816   120.80185626   181.79155332
 C      8   7   1     7.882069050669   127.66053302   135.29415718
 H     17   8   7     2.071946987368    55.56255026   283.91710298
 H     17   8   7     2.081186211200    90.61814052   173.50441556
 C     17   8   7     2.871861479794    64.11776558    65.77696128
 O     20  17   8     2.419062343764   118.13559967   165.40727013
 O     20  17   8     2.363133402544   117.46259986   350.91870970
 C     21  20  17     8.161053406824   134.88629437   325.52586168
 N     23  21  20     2.613523959319   105.17933540   232.27176641
 H     24  23  21     1.936732494536   129.04298736   167.65962428
 C     24  23  21     2.544354738471   108.36455630   346.01994485
 H     26  24  23     2.051099067200   123.05738800   183.95497063
 N     26  24  23     2.508627486753   110.71902908     0.74577281
 C     23  21  20     2.598500536761    13.44650218   141.15482142
 H     29  23  24     2.045027156077   129.54997528   179.62448834
 C     16  15  14     6.754294078916   144.19472548   233.92256255
 N     31  16  15     2.602292264114    95.42881426   240.81701129
 H     32  31  16     1.940286167867   126.34191021   145.17367077
 C     32  31  16     2.540264529419   108.03504931   318.02641137
 H     34  32  31     2.051687376229   123.80958628   183.94192504
 N     34  32  31     2.513911857795   110.42004226     0.78898569
 C     31  16  15     2.593062870175    42.08686156   132.71642141
 H     37  31  16     2.054191627601   128.86337814   260.05332573
 C      5   4   2     7.343217462736   144.79888545   179.70531553
 H     39   5   4     2.089610276821   103.67724528    86.39374334
 H     39   5   4     2.077004611005   148.68571863   257.42868086
 C     39   5   4     2.876213637840    65.52866967   344.82385999
 O     42  39   5     2.385774668614   118.67970913    11.79784803
 O     42  39   5     2.400795488742   117.46742418   188.19198391
 Fe    43  42  39     3.918763890723   131.58669120   162.06472392
 Fe    21  20  17     3.814549243511   135.64640486   197.55880460
 O     45  43  42     3.708745852808    90.21046891   358.56044831
 H     47  45  43     1.886640552903   105.45253418    12.50310723
 C     46  21  20     5.343554730317   122.72262870    46.72792227
 C     49  46  21     2.897622078218   148.71284277    43.98304763
 C     50  49  46     2.914610398763   109.23395238   165.08655102
 C     51  50  49     2.890576565860   111.61001690   304.14886839
 C     52  51  50     2.927581086496   112.62238657    53.29416366
 C     53  52  51     2.883035054469   109.07136381   306.63348847
 O     49  46  21     2.635345508710    37.48164919    18.80980679
 O     50  49  46     2.678014229325   110.46747608    42.67455777
 O     51  50  49     2.669623842582   111.81525639   181.35665540
 O     52  51  50     2.680395041033   107.80417340   176.57866763
 O     53  52  51     2.655279559327   112.53302265   186.51922930
 O     54  53  52     2.698595583534   114.50078959   177.97882171
 H     49  46  21     2.100421663502    95.46964390   264.31686653
 H     50  49  46     2.086111442261   108.36901690   281.31402922
 H     51  50  49     2.097632839773   107.28039516    60.46778938
 H     52  51  50     2.082382811584   107.25453381   296.25786804
 H     53  52  51     2.102846628032   107.05757597    64.68112145
 H     54  53  52     2.081642402765   107.63547122   300.13431883
 H     56  50  49     1.894754158849   106.84444333   243.87505165
 H     57  51  50     1.898123289475   106.78038232   285.56597261
 H     58  52  51     1.896575984991   109.61980005   183.70577862
 H     59  53  52     1.878741829474   110.23506647   315.19218541
 H     60  54  53     1.923090292765   111.99067295    79.10155845
 O     45  43  42     4.079727995420   119.04381975    89.87818513
 O     72  45  43     2.416653948550    76.09011709   352.93901001
 H      1   2   3     2.059786392208   123.92116694   351.11328757
 H      9   6   4     2.059781959029   172.27641818   179.98391940
 H     17   8   7     2.059785763133   159.00254363   333.03864267
 H     23  21  20     2.059779332197   126.05841606    36.27778793
 H     31  16  15     2.059764510637   127.32132727    23.08594335
 H     39   5   4     2.059767094232    55.21100051   187.15060506

---------------------
BASIS SET INFORMATION
---------------------
There are 5 groups of distinct atoms

 Group   1 Type C   : 11s6p2d1f contracted to 5s3p2d1f pattern {62111/411/11/1}
 Group   2 Type N   : 11s6p2d1f contracted to 5s3p2d1f pattern {62111/411/11/1}
 Group   3 Type H   : 5s1p contracted to 3s1p pattern {311/1}
 Group   4 Type O   : 11s6p2d1f contracted to 5s3p2d1f pattern {62111/411/11/1}
 Group   5 Type Fe  : 17s11p7d1f contracted to 6s4p4d1f pattern {842111/6311/4111/1}

Atom   0C    basis set group =>   1
Atom   1N    basis set group =>   2
Atom   2H    basis set group =>   3
Atom   3C    basis set group =>   1
Atom   4H    basis set group =>   3
Atom   5N    basis set group =>   2
Atom   6C    basis set group =>   1
Atom   7H    basis set group =>   3
Atom   8C    basis set group =>   1
Atom   9N    basis set group =>   2
Atom  10H    basis set group =>   3
Atom  11C    basis set group =>   1
Atom  12H    basis set group =>   3
Atom  13N    basis set group =>   2
Atom  14C    basis set group =>   1
Atom  15H    basis set group =>   3
Atom  16C    basis set group =>   1
Atom  17H    basis set group =>   3
Atom  18H    basis set group =>   3
Atom  19C    basis set group =>   1
Atom  20O    basis set group =>   4
Atom  21O    basis set group =>   4
Atom  22C    basis set group =>   1
Atom  23N    basis set group =>   2
Atom  24H    basis set group =>   3
Atom  25C    basis set group =>   1
Atom  26H    basis set group =>   3
Atom  27N    basis set group =>   2
Atom  28C    basis set group =>   1
Atom  29H    basis set group =>   3
Atom  30C    basis set group =>   1
Atom  31N    basis set group =>   2
Atom  32H    basis set group =>   3
Atom  33C    basis set group =>   1
Atom  34H    basis set group =>   3
Atom  35N    basis set group =>   2
Atom  36C    basis set group =>   1
Atom  37H    basis set group =>   3
Atom  38C    basis set group =>   1
Atom  39H    basis set group =>   3
Atom  40H    basis set group =>   3
Atom  41C    basis set group =>   1
Atom  42O    basis set group =>   4
Atom  43O    basis set group =>   4
Atom  44Fe   basis set group =>   5
Atom  45Fe   basis set group =>   5
Atom  46O    basis set group =>   4
Atom  47H    basis set group =>   3
Atom  48C    basis set group =>   1
Atom  49C    basis set group =>   1
Atom  50C    basis set group =>   1
Atom  51C    basis set group =>   1
Atom  52C    basis set group =>   1
Atom  53C    basis set group =>   1
Atom  54O    basis set group =>   4
Atom  55O    basis set group =>   4
Atom  56O    basis set group =>   4
Atom  57O    basis set group =>   4
Atom  58O    basis set group =>   4
Atom  59O    basis set group =>   4
Atom  60H    basis set group =>   3
Atom  61H    basis set group =>   3
Atom  62H    basis set group =>   3
Atom  63H    basis set group =>   3
Atom  64H    basis set group =>   3
Atom  65H    basis set group =>   3
Atom  66H    basis set group =>   3
Atom  67H    basis set group =>   3
Atom  68H    basis set group =>   3
Atom  69H    basis set group =>   3
Atom  70H    basis set group =>   3
Atom  71O    basis set group =>   4
Atom  72O    basis set group =>   4
Atom  73H    basis set group =>   3
Atom  74H    basis set group =>   3
Atom  75H    basis set group =>   3
Atom  76H    basis set group =>   3
Atom  77H    basis set group =>   3
Atom  78H    basis set group =>   3
--------------------------------------------------------------------------
WARNING: There was an error initializing an OpenFabrics device.

  Local host:   cnode12
  Local device: mlx5_0
--------------------------------------------------------------------------


           ************************************************************
           *        Program running with 16 parallel MPI-processes    *
           *              working on a common directory               *
           ************************************************************
------------------------------------------------------------------------------
                           ORCA GTO INTEGRAL CALCULATION
------------------------------------------------------------------------------
------------------------------------------------------------------------------
                   ___                                                        
                  /   \      - P O W E R E D   B Y -                         
                 /     \                                                     
                 |  |  |   _    _      __       _____    __    __             
                 |  |  |  | |  | |    /  \     |  _  \  |  |  /  |          
                  \  \/   | |  | |   /    \    | | | |  |  | /  /          
                 / \  \   | |__| |  /  /\  \   | |_| |  |  |/  /          
                |  |  |   |  __  | /  /__\  \  |    /   |      \           
                |  |  |   | |  | | |   __   |  |    \   |  |\   \          
                \     /   | |  | | |  |  |  |  | |\  \  |  | \   \       
                 \___/    |_|  |_| |__|  |__|  |_| \__\ |__|  \__/        
                                                                              
                      - O R C A' S   B I G   F R I E N D -                    
                                      &                                       
                       - I N T E G R A L  F E E D E R -                       
                                                                              
 v1 FN, 2020, v2 2021                                                         
------------------------------------------------------------------------------


Reading SHARK input file /scratch/RC-highspin_970/RC-highspin.SHARKINP.tmp ... ok
----------------------
SHARK INTEGRAL PACKAGE
----------------------

Number of atoms                             ...     79
Number of basis functions                   ...   1627
Number of shells                            ...    639
Maximum angular momentum                    ...      3
Integral batch strategy                     ... SHARK/LIBINT Hybrid
RI-J (if used) integral strategy            ... SPLIT-RIJ (Revised 2003 algorithm where possible)
Printlevel                                  ...      1
Contraction scheme used                     ... SEGMENTED contraction
Coulomb Range Separation                    ... NOT USED
Exchange Range Separation                   ... NOT USED
Finite Nucleus Model                        ... NOT USED
Auxiliary Coulomb fitting basis             ... NOT available
Auxiliary J/K fitting basis                 ... NOT available
Auxiliary Correlation fitting basis         ... NOT available
Auxiliary 'external' fitting basis          ... NOT available
Integral threshold                          ...     1.000000e-12
Primitive cut-off                           ...     1.000000e-14
Primitive pair pre-selection threshold      ...     1.000000e-14

Calculating pre-screening integrals         ... done (  1.1 sec) Dimension = 639
Organizing shell pair data                  ... done (  0.8 sec)
Shell pair information
Total number of shell pairs                 ...    204480
Shell pairs after pre-screening             ...    119703
Total number of primitive shell pairs       ...    646982
Primitive shell pairs kept                  ...    232728
          la=0 lb=0:  31425 shell pairs
          la=1 lb=0:  35132 shell pairs
          la=1 lb=1:   9897 shell pairs
          la=2 lb=0:  17094 shell pairs
          la=2 lb=1:   9839 shell pairs
          la=2 lb=2:   2439 shell pairs
          la=3 lb=0:   7259 shell pairs
          la=3 lb=1:   4261 shell pairs
          la=3 lb=2:   1955 shell pairs
          la=3 lb=3:    402 shell pairs

Calculating one electron integrals          ... done (  0.2 sec)
Calculating Nuclear repulsion               ... done (  0.0 sec) ENN=   8194.695811282376 Eh

SHARK setup successfully completed in   2.2 seconds

Maximum memory used throughout the entire GTOINT-calculation: 174.9 MB
[cnode12:59752] 15 more processes have sent help message help-mpi-btl-openib.txt / error in device init
[cnode12:59752] Set MCA parameter "orte_base_help_aggregate" to 0 to see all help / error messages
--------------------------------------------------------------------------
WARNING: There was an error initializing an OpenFabrics device.

  Local host:   cnode12
  Local device: mlx5_0
--------------------------------------------------------------------------


           ************************************************************
           *        Program running with 16 parallel MPI-processes    *
           *              working on a common directory               *
           ************************************************************
-------------------------------------------------------------------------------
                                 ORCA SCF
-------------------------------------------------------------------------------

------------
SCF SETTINGS
------------
Hamiltonian:
 Ab initio Hamiltonian  Method          .... Hartree-Fock(GTOs)


General Settings:
 Integral files         IntName         .... /scratch/RC-highspin_970/RC-highspin
 Hartree-Fock type      HFTyp           .... UHF
 Total Charge           Charge          ....    1
 Multiplicity           Mult            ....   12
 Number of Electrons    NEL             ....  377
 Basis Dimension        Dim             .... 1627
 Nuclear Repulsion      ENuc            ....   8194.6958112824 Eh

Convergence Acceleration:
 DIIS                   CNVDIIS         .... on
   Start iteration      DIISMaxIt       ....     0
   Startup error        DIISStart       ....  0.200000
   # of expansion vecs  DIISMaxEq       ....     5
   Bias factor          DIISBfac        ....   1.050
   Max. coefficient     DIISMaxC        ....  10.000
 Trust-Rad. Augm. Hess. CNVTRAH         .... auto
   Auto Start mean grad. ratio tolernc. ....  1.125000
   Auto Start start iteration           ....    20
   Auto Start num. interpolation iter.  ....    10
   Max. Number of Micro iterations      ....    16
   Max. Number of Macro iterations      .... Maxiter - #DIIS iter
   Number of Davidson start vectors     ....     2
   Converg. threshold I  (grad. norm)   ....   2.000e-06
   Converg. threshold II (energy diff.) ....   1.000e-09
   Grad. Scal. Fac. for Micro threshold ....   0.100
   Minimum threshold for Micro iter.    ....   0.010
   NR start threshold (gradient norm)   ....   0.001
   Initial trust radius                 ....   0.400
   Minimum AH scaling param. (alpha)    ....   1.000
   Maximum AH scaling param. (alpha)    .... 1000.000
   Orbital update algorithm             .... Taylor
   White noise on init. David. guess    .... on
   Maximum white noise                  ....   0.010
   Quad. conv. algorithm                .... NR
 SOSCF                  CNVSOSCF        .... off
 Level Shifting         CNVShift        .... on
   Level shift para.    LevelShift      ....    0.2500
   Turn off err/grad.   ShiftErr        ....    0.0000
 Zerner damping         CNVZerner       .... off
 Static damping         CNVDamp         .... on
   Fraction old density DampFac         ....    0.8500
   Max. Damping (<1)    DampMax         ....    0.9800
   Min. Damping (>=0)   DampMin         ....    0.0000
   Turn off err/grad.   DampErr         ....    0.0300
 Fernandez-Rico         CNVRico         .... off

SCF Procedure:
 Maximum # iterations   MaxIter         ....   500
 SCF integral mode      SCFMode         .... Direct
   Integral package                     .... SHARK and LIBINT hybrid scheme
 Reset frequency        DirectResetFreq ....    20
 Integral Threshold     Thresh          ....  1.000e-12 Eh
 Primitive CutOff       TCut            ....  1.000e-14 Eh

Convergence Tolerance:
 Convergence Check Mode ConvCheckMode   .... Total+1el-Energy
 Convergence forced     ConvForced      .... 0
 Energy Change          TolE            ....  1.000e-09 Eh
 1-El. energy change                    ....  1.000e-06 Eh
 DIIS Error             TolErr          ....  1.000e-08


Diagonalization of the overlap matrix:
Smallest eigenvalue                        ... 3.229e-05
Time for diagonalization                   ...    0.327 sec
Threshold for overlap eigenvalues          ... 1.000e-08
Number of eigenvalues below threshold      ... 0
Time for construction of square roots      ...    0.439 sec
Total time needed                          ...    0.775 sec

Time for model grid setup =    0.752 sec

------------------------------
INITIAL GUESS: MODEL POTENTIAL
------------------------------
Loading Hartree-Fock densities                     ... done
Calculating cut-offs                               ... done
Initializing the effective Hamiltonian             ... done
Setting up the integral package (SHARK)            ... done
Starting the Coulomb interaction                   ... done (   1.6 sec)
Reading the grid                                   ... done
Mapping shells                                     ... done
Starting the XC term evaluation                    ... done (   0.4 sec)
Transforming the Hamiltonian                       ... done (   0.2 sec)
Diagonalizing the Hamiltonian                      ... [cnode12:59892] 15 more processes have sent help message help-mpi-btl-openib.txt / error in device init
[cnode12:59892] Set MCA parameter "orte_base_help_aggregate" to 0 to see all help / error messages
done (   0.4 sec)
Back transforming the eigenvectors                 ... done (   0.1 sec)
Now organizing SCF variables                       ... done
                      ------------------
                      INITIAL GUESS DONE (   3.5 sec)
                      ------------------
--------------
SCF ITERATIONS
--------------
ITER       Energy         Delta-E        Max-DP      RMS-DP      [F,P]     Damp
               ***  Starting incremental Fock matrix formation  ***
  0  -4785.0972792901   0.000000000000 0.04273187  0.00013072  0.3269270 0.8500
  1  -4785.5089619017  -0.411682611651 0.04690307  0.00013371  0.2667201 0.8500
                               ***Turning on DIIS***
  2  -4785.8271193998  -0.318157498066 0.03435743  0.00010808  0.2295634 0.8500
  3  -4791.3683796926  -5.541260292852 0.01593222  0.00007382  0.1975107 0.8500
  4  -4794.3385215330  -2.970141840362 0.00633123  0.00005769  0.1690447 0.8500
  5  -4794.7452801302  -0.406758597192 0.00562888  0.00005026  0.1441806 0.8500
  6  -4794.1914724206   0.553807709559 0.00519512  0.00004488  0.1227794 0.8500
  7  -4793.1138244572   1.077647963406 0.00481200  0.00004042  0.1044628 0.8500
  8  -4792.0896937515   1.024130705706 0.00430967  0.00003603  0.0888641 0.8500
  9  -4791.3348076941   0.754886057442 0.00377609  0.00003175  0.0755747 0.8500
 10  -4790.7745153027   0.560292391334 0.00331095  0.00002788  0.0642579 0.8500
 11  -4790.3203198974   0.454195405326 0.00293616  0.00002449  0.0546324 0.8500
 12  -4789.9288192997   0.391500597721 0.00275673  0.00002158  0.0464565 0.8500
 13  -4789.5810806741   0.347738625565 0.00260787  0.00001907  0.0395403 0.8500
 14  -4789.2782736586   0.302807015540 0.00246056  0.00001691  0.0336551 0.8500
 15  -4789.0199024033   0.258371255268 0.01542988  0.00010032  0.0286463 0.0000
 16  -4787.4389555220   1.580946881273 0.00490473  0.00001461  0.0064011 0.0000
 17  -4787.4442023490  -0.005246826906 0.00601057  0.00001748  0.0057363 0.0000
 18  -4787.4961889080  -0.051986559032 0.00871965  0.00002383  0.0046055 0.0000
 19  -4787.4597295772   0.036459330806 0.00262477  0.00000995  0.0035281 0.0000
               *** Restarting incremental Fock matrix formation ***
                                   *** Resetting DIIS ***
 20  -4787.4364158578   0.023313719366 0.00112174  0.00000446  0.0022126 0.0000
 21  -4787.4354542866   0.000961571233 0.00157940  0.00000557  0.0018270 0.0000
 22  -4787.4581650369  -0.022710750327 0.00248364  0.00000791  0.0013663 0.0000
 23  -4787.4490022723   0.009162764611 0.00076897  0.00000278  0.0007926 0.0000
 24  -4787.4457709256   0.003231346673 0.00073316  0.00000267  0.0003990 0.0000
 25  -4787.4434196821   0.002351243529 0.00018673  0.00000075  0.0002036 0.0000
 26  -4787.4395427815   0.003876900624 0.00009647  0.00000044  0.0001317 0.0000
 27  -4787.4379402325   0.001602548960 0.00009956  0.00000032  0.0001246 0.0000
 28  -4787.4375247522   0.000415480343 0.00010987  0.00000035  0.0001065 0.0000
 29  -4787.4370542197   0.000470532459 0.00016341  0.00000049  0.0000989 0.0000
 30  -4787.4368635232   0.000190696497 0.00022473  0.00000070  0.0000789 0.0000
 31  -4787.4370803824  -0.000216859158 0.00008825  0.00000031  0.0000686 0.0000
 32  -4787.4366041070   0.000476275414 0.00023203  0.00000078  0.0000537 0.0000
 33  -4787.4367572060  -0.000153099021 0.00006243  0.00000028  0.0000650 0.0000
 34  -4787.4367815702  -0.000024364210 0.00009096  0.00000038  0.0000324 0.0000
 35  -4787.4368028941  -0.000021323956 0.00004646  0.00000025  0.0000369 0.0000
 36  -4787.4368820355  -0.000079141328 0.00003617  0.00000021  0.0000279 0.0000
 37  -4787.4368721366   0.000009898904 0.00005330  0.00000029  0.0000223 0.0000
 38  -4787.4369121733  -0.000040036748 0.00005584  0.00000029  0.0000197 0.0000
 39  -4787.4368976060   0.000014567271 0.00004563  0.00000025  0.0000180 0.0000
               *** Restarting incremental Fock matrix formation ***
                                   *** Resetting DIIS ***
 40  -4787.4369094152  -0.000011809141 0.00000698  0.00000004  0.0000164 0.0000
 41  -4787.4369080982   0.000001316999 0.00000744  0.00000003  0.0000169 0.0000
 42  -4787.4369088687  -0.000000770517 0.00000718  0.00000003  0.0000142 0.0000

 WARNING: the maximum gradient error descreased on average only by a factor   1.1
          during the last 20 iterations

                      *** Initiating the TRAH-SCF procedure ***

 --------------------------------------------------------------------------------------------
   Iter.        energy            ||Error||_2        Shift      TRadius  Mac/Mic        Rej.
 --------------------------------------------------------------------------------------------
    0      -4787.436909458104     4.585722e-05                     0.400 (TRAH MAcro)   No
    0     dE    -1.765616e-08     2.430282e-04    -1.7656e-08      0.000 (TRAH MIcro)
    0     dE    -6.542780e-08     1.242113e-04    -6.5428e-08      0.001 (TRAH MIcro)
    0     dE    -6.998728e-08     5.218913e-05    -6.9987e-08      0.002 (TRAH MIcro)
    0     dE    -7.186364e-08     5.253401e-05    -7.1863e-08      0.002 (TRAH MIcro)
    0     dE    -7.384279e-08     5.033176e-05    -7.3843e-08      0.002 (TRAH MIcro)
    0     dE    -7.527332e-08     4.540961e-05    -7.5273e-08      0.002 (TRAH MIcro)
    0     dE    -7.626540e-08     2.462774e-05    -7.6265e-08      0.002 (TRAH MIcro)
    0     dE    -7.646563e-08     1.340117e-05    -7.6465e-08      0.002 (TRAH MIcro)
    0     dE    -7.653506e-08     7.530017e-06    -7.6535e-08      0.002 (TRAH MIcro)
    0     dE    -7.656877e-08     6.096752e-06    -7.6569e-08      0.002 (TRAH MIcro)
    0     dE    -7.659797e-08     6.058074e-06    -7.6598e-08      0.002 (TRAH MIcro)
    0     dE    -7.662332e-08     5.336633e-06    -7.6623e-08      0.002 (TRAH MIcro)
    0     dE    -7.664141e-08     4.204470e-06    -7.6641e-08      0.002 (TRAH MIcro)
    0     dE    -7.665070e-08     3.188806e-06    -7.6650e-08      0.002 (TRAH MIcro)
    1      -4787.436909534744     3.187431e-06                           (NR   MAcro)
    1     dE    -4.182452e-12     1.564831e-06                           (NR   MIcro)
    1     dE    -7.637346e-12     2.028854e-06                           (NR   MIcro)
    1     dE    -9.459556e-12     1.014823e-06                           (NR   MIcro)
    1     dE    -1.033799e-11     9.632461e-07                           (NR   MIcro)
    1     dE    -1.084154e-11     6.210747e-07                           (NR   MIcro)
    1     dE    -1.128932e-11     8.361062e-07                           (NR   MIcro)
    1     dE    -1.167121e-11     6.169477e-07                           (NR   MIcro)
    1     dE    -1.195234e-11     5.201503e-07                           (NR   MIcro)
    1     dE    -1.205549e-11     2.721521e-07                           (NR   MIcro)
    1     dE    -1.210658e-11     2.385266e-07                           (NR   MIcro)
    1     dE    -1.213425e-11     1.535508e-07                           (NR   MIcro)
    2      -4787.436909534747     1.535496e-07                           (NR   MAcro)

               *****************************************************
               *                     SUCCESS                       *
               *           SCF CONVERGED AFTER  71 CYCLES          *
               *****************************************************


----------------
TOTAL SCF ENERGY
----------------

Total Energy       :        -4787.43690953 Eh         -130272.78125 eV

Components:
Nuclear Repulsion  :         8194.69581128 Eh          222989.00957 eV
Electronic Energy  :       -12982.13272082 Eh         -353261.79082 eV
One Electron Energy:       -22904.88959205 Eh         -623273.73242 eV
Two Electron Energy:         9922.75687123 Eh          270011.94161 eV

Virial components:
Potential Energy   :        -9571.26565133 Eh         -260447.37926 eV
Kinetic Energy     :         4783.82874179 Eh          130174.59801 eV
Virial Ratio       :            2.00075424


---------------
SCF CONVERGENCE
---------------

  Last Energy change         ...   -2.7285e-12  Tolerance :   1.0000e-09
  Last Orbital Gradient      ...    1.5355e-07  Tolerance :   2.0000e-06
  Last Orbital Rotation      ...    1.3552e-05

             **** THE GBW FILE WAS UPDATED (/scratch/RC-highspin_970/RC-highspin.gbw) ****
             **** DENSITY /scratch/RC-highspin_970/RC-highspin.scfp WAS UPDATED ****
             **** ENERGY FILE WAS UPDATED (/scratch/RC-highspin_970/RC-highspin.en.tmp) ****
----------------------
UHF SPIN CONTAMINATION
----------------------

Expectation value of <S**2>     :    35.798818
Ideal value S*(S+1) for S=5.5   :    35.750000
Deviation                       :     0.048818

             **** THE GBW FILE WAS UPDATED (/scratch/RC-highspin_970/RC-highspin.gbw) ****
             **** DENSITY /scratch/RC-highspin_970/RC-highspin.scfp WAS UPDATED ****
----------------
ORBITAL ENERGIES
----------------
                 SPIN UP ORBITALS
  NO   OCC          E(Eh)            E(eV) 
   0   1.0000    -261.610128     -7118.7735 
   1   1.0000    -261.609105     -7118.7456 
   2   1.0000     -32.276302      -878.2828 
   3   1.0000     -32.273518      -878.2071 
   4   1.0000     -27.753391      -755.2082 
   5   1.0000     -27.752446      -755.1824 
   6   1.0000     -27.751398      -755.1539 
   7   1.0000     -27.750212      -755.1217 
   8   1.0000     -27.749986      -755.1155 
   9   1.0000     -27.749588      -755.1047 
  10   1.0000     -20.691783      -563.0520 
  11   1.0000     -20.639359      -561.6255 
  12   1.0000     -20.635278      -561.5145 
  13   1.0000     -20.633247      -561.4592 
  14   1.0000     -20.621930      -561.1512 
  15   1.0000     -20.619610      -561.0881 
  16   1.0000     -20.613930      -560.9335 
  17   1.0000     -20.606180      -560.7227 
  18   1.0000     -20.602216      -560.6148 
  19   1.0000     -20.589510      -560.2691 
  20   1.0000     -20.586573      -560.1891 
  21   1.0000     -20.562093      -559.5230 
  22   1.0000     -20.538457      -558.8798 
  23   1.0000     -15.750131      -428.5829 
  24   1.0000     -15.746078      -428.4726 
  25   1.0000     -15.737129      -428.2290 
  26   1.0000     -15.728783      -428.0019 
  27   1.0000     -15.693369      -427.0383 
  28   1.0000     -15.688244      -426.8988 
  29   1.0000     -15.674334      -426.5203 
  30   1.0000     -15.670618      -426.4192 
  31   1.0000     -11.457786      -311.7822 
  32   1.0000     -11.433181      -311.1127 
  33   1.0000     -11.429664      -311.0170 
  34   1.0000     -11.416967      -310.6715 
  35   1.0000     -11.415974      -310.6444 
  36   1.0000     -11.408908      -310.4522 
  37   1.0000     -11.379337      -309.6475 
  38   1.0000     -11.374812      -309.5244 
  39   1.0000     -11.369673      -309.3845 
  40   1.0000     -11.363722      -309.2226 
  41   1.0000     -11.358984      -309.0937 
  42   1.0000     -11.358797      -309.0886 
  43   1.0000     -11.353662      -308.9489 
  44   1.0000     -11.352196      -308.9090 
  45   1.0000     -11.347995      -308.7946 
  46   1.0000     -11.346573      -308.7560 
  47   1.0000     -11.337177      -308.5003 
  48   1.0000     -11.328746      -308.2709 
  49   1.0000     -11.323702      -308.1336 
  50   1.0000     -11.314880      -307.8935 
  51   1.0000     -11.310323      -307.7695 
  52   1.0000     -11.283119      -307.0293 
  53   1.0000      -4.634149      -126.1016 
  54   1.0000      -4.629444      -125.9736 
  55   1.0000      -3.249524       -88.4240 
  56   1.0000      -3.247223       -88.3614 
  57   1.0000      -3.245132       -88.3045 
  58   1.0000      -3.245103       -88.3037 
  59   1.0000      -3.242077       -88.2214 
  60   1.0000      -3.241070       -88.1940 
  61   1.0000      -1.566844       -42.6360 
  62   1.0000      -1.504317       -40.9346 
  63   1.0000      -1.486694       -40.4550 
  64   1.0000      -1.473306       -40.0907 
  65   1.0000      -1.468038       -39.9473 
  66   1.0000      -1.464008       -39.8377 
  67   1.0000      -1.458177       -39.6790 
  68   1.0000      -1.450213       -39.4623 
  69   1.0000      -1.444091       -39.2957 
  70   1.0000      -1.418882       -38.6098 
  71   1.0000      -1.404873       -38.2285 
  72   1.0000      -1.402353       -38.1600 
  73   1.0000      -1.386628       -37.7321 
  74   1.0000      -1.369955       -37.2784 
  75   1.0000      -1.348466       -36.6936 
  76   1.0000      -1.340156       -36.4675 
  77   1.0000      -1.302638       -35.4466 
  78   1.0000      -1.296794       -35.2876 
  79   1.0000      -1.288204       -35.0538 
  80   1.0000      -1.279195       -34.8087 
  81   1.0000      -1.142869       -31.0990 
  82   1.0000      -1.130889       -30.7731 
  83   1.0000      -1.130707       -30.7681 
  84   1.0000      -1.123553       -30.5734 
  85   1.0000      -1.119877       -30.4734 
  86   1.0000      -1.109605       -30.1939 
  87   1.0000      -1.078817       -29.3561 
  88   1.0000      -1.045488       -28.4492 
  89   1.0000      -1.040825       -28.3223 
  90   1.0000      -1.023948       -27.8630 
  91   1.0000      -0.994159       -27.0524 
  92   1.0000      -0.987457       -26.8701 
  93   1.0000      -0.982975       -26.7481 
  94   1.0000      -0.979657       -26.6578 
  95   1.0000      -0.967736       -26.3334 
  96   1.0000      -0.963625       -26.2216 
  97   1.0000      -0.962652       -26.1951 
  98   1.0000      -0.959012       -26.0960 
  99   1.0000      -0.958647       -26.0861 
 100   1.0000      -0.954897       -25.9841 
 101   1.0000      -0.950573       -25.8664 
 102   1.0000      -0.944979       -25.7142 
 103   1.0000      -0.938759       -25.5449 
 104   1.0000      -0.928488       -25.2654 
 105   1.0000      -0.923255       -25.1230 
 106   1.0000      -0.918755       -25.0006 
 107   1.0000      -0.909858       -24.7585 
 108   1.0000      -0.904577       -24.6148 
 109   1.0000      -0.901242       -24.5240 
 110   1.0000      -0.885030       -24.0829 
 111   1.0000      -0.879100       -23.9215 
 112   1.0000      -0.870949       -23.6997 
 113   1.0000      -0.869111       -23.6497 
 114   1.0000      -0.858115       -23.3505 
 115   1.0000      -0.845838       -23.0164 
 116   1.0000      -0.835551       -22.7365 
 117   1.0000      -0.808060       -21.9884 
 118   1.0000      -0.801549       -21.8112 
 119   1.0000      -0.781767       -21.2730 
 120   1.0000      -0.775590       -21.1049 
 121   1.0000      -0.761910       -20.7326 
 122   1.0000      -0.752059       -20.4646 
 123   1.0000      -0.749107       -20.3842 
 124   1.0000      -0.746176       -20.3045 
 125   1.0000      -0.739310       -20.1176 
 126   1.0000      -0.738036       -20.0830 
 127   1.0000      -0.735678       -20.0188 
 128   1.0000      -0.731249       -19.8983 
 129   1.0000      -0.729123       -19.8404 
 130   1.0000      -0.728448       -19.8221 
 131   1.0000      -0.722960       -19.6728 
 132   1.0000      -0.720929       -19.6175 
 133   1.0000      -0.720337       -19.6014 
 134   1.0000      -0.715245       -19.4628 
 135   1.0000      -0.713585       -19.4176 
 136   1.0000      -0.712593       -19.3906 
 137   1.0000      -0.711317       -19.3559 
 138   1.0000      -0.709554       -19.3080 
 139   1.0000      -0.701730       -19.0950 
 140   1.0000      -0.701342       -19.0845 
 141   1.0000      -0.699182       -19.0257 
 142   1.0000      -0.697938       -18.9919 
 143   1.0000      -0.697171       -18.9710 
 144   1.0000      -0.694876       -18.9086 
 145   1.0000      -0.689995       -18.7757 
 146   1.0000      -0.686757       -18.6876 
 147   1.0000      -0.680431       -18.5155 
 148   1.0000      -0.676105       -18.3977 
 149   1.0000      -0.674850       -18.3636 
 150   1.0000      -0.667002       -18.1500 
 151   1.0000      -0.657522       -17.8921 
 152   1.0000      -0.650332       -17.6964 
 153   1.0000      -0.644974       -17.5506 
 154   1.0000      -0.642316       -17.4783 
 155   1.0000      -0.635041       -17.2803 
 156   1.0000      -0.631714       -17.1898 
 157   1.0000      -0.627626       -17.0786 
 158   1.0000      -0.623722       -16.9723 
 159   1.0000      -0.619410       -16.8550 
 160   1.0000      -0.614624       -16.7248 
 161   1.0000      -0.611681       -16.6447 
 162   1.0000      -0.604657       -16.4536 
 163   1.0000      -0.601818       -16.3763 
 164   1.0000      -0.584809       -15.9135 
 165   1.0000      -0.583383       -15.8747 
 166   1.0000      -0.576938       -15.6993 
 167   1.0000      -0.567632       -15.4460 
 168   1.0000      -0.559988       -15.2380 
 169   1.0000      -0.556525       -15.1438 
 170   1.0000      -0.551374       -15.0037 
 171   1.0000      -0.546154       -14.8616 
 172   1.0000      -0.543224       -14.7819 
 173   1.0000      -0.542266       -14.7558 
 174   1.0000      -0.536193       -14.5905 
 175   1.0000      -0.534135       -14.5345 
 176   1.0000      -0.527618       -14.3572 
 177   1.0000      -0.520157       -14.1542 
 178   1.0000      -0.518853       -14.1187 
 179   1.0000      -0.517705       -14.0875 
 180   1.0000      -0.508082       -13.8256 
 181   1.0000      -0.505338       -13.7510 
 182   1.0000      -0.492877       -13.4119 
 183   1.0000      -0.488546       -13.2940 
 184   1.0000      -0.484882       -13.1943 
 185   1.0000      -0.483750       -13.1635 
 186   1.0000      -0.479508       -13.0481 
 187   1.0000      -0.454556       -12.3691 
 188   1.0000      -0.444760       -12.1025 
 189   1.0000      -0.441848       -12.0233 
 190   1.0000      -0.438044       -11.9198 
 191   1.0000      -0.436734       -11.8841 
 192   1.0000      -0.429412       -11.6849 
 193   1.0000      -0.420080       -11.4310 
 194   0.0000       0.014150         0.3851 
 195   0.0000       0.025306         0.6886 
 196   0.0000       0.031138         0.8473 
 197   0.0000       0.033839         0.9208 
 198   0.0000       0.040358         1.0982 
 199   0.0000       0.041249         1.1225 
 200   0.0000       0.044727         1.2171 
 201   0.0000       0.052894         1.4393 
 202   0.0000       0.057693         1.5699 
 203   0.0000       0.062533         1.7016 
 204   0.0000       0.064072         1.7435 
 205   0.0000       0.068790         1.8719 
 206   0.0000       0.071020         1.9325 
 207   0.0000       0.078364         2.1324 
 208   0.0000       0.079239         2.1562 
 209   0.0000       0.079824         2.1721 
 210   0.0000       0.084873         2.3095 
 211   0.0000       0.089074         2.4238 
 212   0.0000       0.091670         2.4945 
 213   0.0000       0.092444         2.5155 
 214   0.0000       0.098194         2.6720 
 215   0.0000       0.099059         2.6955 
 216   0.0000       0.100952         2.7471 
 217   0.0000       0.104147         2.8340 
 218   0.0000       0.107699         2.9306 
 219   0.0000       0.111828         3.0430 
 220   0.0000       0.114653         3.1199 
 221   0.0000       0.117799         3.2055 
 222   0.0000       0.123149         3.3510 
 223   0.0000       0.132675         3.6103 
 224   0.0000       0.134516         3.6604 
 225   0.0000       0.140813         3.8317 
 226   0.0000       0.146979         3.9995 
 227   0.0000       0.150560         4.0969 
 228   0.0000       0.154908         4.2153 
 229   0.0000       0.158870         4.3231 
 230   0.0000       0.161424         4.3926 
 231   0.0000       0.165741         4.5101 
 232   0.0000       0.168709         4.5908 
 233   0.0000       0.171744         4.6734 
 234   0.0000       0.175041         4.7631 
 235   0.0000       0.176533         4.8037 
 236   0.0000       0.180964         4.9243 
 237   0.0000       0.183116         4.9828 
 238   0.0000       0.189860         5.1664 
 239   0.0000       0.194039         5.2801 
 240   0.0000       0.196104         5.3363 
 241   0.0000       0.199428         5.4267 
 242   0.0000       0.199851         5.4382 
 243   0.0000       0.206065         5.6073 
 244   0.0000       0.209870         5.7109 
 245   0.0000       0.212361         5.7786 
 246   0.0000       0.215582         5.8663 
 247   0.0000       0.218867         5.9557 
 248   0.0000       0.219775         5.9804 
 249   0.0000       0.227513         6.1909 
 250   0.0000       0.230978         6.2852 
 251   0.0000       0.231754         6.3063 
 252   0.0000       0.237477         6.4621 
 253   0.0000       0.240021         6.5313 
 254   0.0000       0.242807         6.6071 
 255   0.0000       0.247008         6.7214 
 256   0.0000       0.248763         6.7692 
 257   0.0000       0.249960         6.8018 
 258   0.0000       0.254754         6.9322 
 259   0.0000       0.259209         7.0534 
 260   0.0000       0.262047         7.1307 
 261   0.0000       0.263336         7.1657 
 262   0.0000       0.268611         7.3093 
 263   0.0000       0.271327         7.3832 
 264   0.0000       0.274595         7.4721 
 265   0.0000       0.277813         7.5597 
 266   0.0000       0.280290         7.6271 
 267   0.0000       0.283288         7.7087 
 268   0.0000       0.284153         7.7322 
 269   0.0000       0.289058         7.8657 
 270   0.0000       0.291350         7.9280 
 271   0.0000       0.291767         7.9394 
 272   0.0000       0.294642         8.0176 
 273   0.0000       0.299576         8.1519 
 274   0.0000       0.300275         8.1709 
 275   0.0000       0.303686         8.2637 
 276   0.0000       0.304575         8.2879 
 277   0.0000       0.307977         8.3805 
 278   0.0000       0.313935         8.5426 
 279   0.0000       0.316180         8.6037 
 280   0.0000       0.319442         8.6925 
 281   0.0000       0.320771         8.7286 
 282   0.0000       0.324620         8.8334 
 283   0.0000       0.326116         8.8741 
 284   0.0000       0.329372         8.9627 
 285   0.0000       0.337841         9.1931 
 286   0.0000       0.342230         9.3125 
 287   0.0000       0.343638         9.3509 
 288   0.0000       0.345120         9.3912 
 289   0.0000       0.350764         9.5448 
 290   0.0000       0.352492         9.5918 
 291   0.0000       0.361457         9.8357 
 292   0.0000       0.363552         9.8927 
 293   0.0000       0.366326         9.9682 
 294   0.0000       0.371899        10.1199 
 295   0.0000       0.375283        10.2120 
 296   0.0000       0.380287        10.3481 
 297   0.0000       0.384077        10.4513 
 298   0.0000       0.385409        10.4875 
 299   0.0000       0.388956        10.5840 
 300   0.0000       0.393677        10.7125 
 301   0.0000       0.398751        10.8506 
 302   0.0000       0.400274        10.8920 
 303   0.0000       0.401406        10.9228 
 304   0.0000       0.404936        11.0189 
 305   0.0000       0.410036        11.1576 
 306   0.0000       0.412943        11.2368 
 307   0.0000       0.416667        11.3381 
 308   0.0000       0.419888        11.4257 
 309   0.0000       0.422111        11.4862 
 310   0.0000       0.424703        11.5568 
 311   0.0000       0.426912        11.6169 
 312   0.0000       0.428527        11.6608 
 313   0.0000       0.431550        11.7431 
 314   0.0000       0.434093        11.8123 
 315   0.0000       0.437719        11.9109 
 316   0.0000       0.439485        11.9590 
 317   0.0000       0.442535        12.0420 
 318   0.0000       0.444689        12.1006 
 319   0.0000       0.447301        12.1717 
 320   0.0000       0.449690        12.2367 
 321   0.0000       0.450160        12.2495 
 322   0.0000       0.452349        12.3091 
 323   0.0000       0.454843        12.3769 
 324   0.0000       0.457109        12.4386 
 325   0.0000       0.458469        12.4756 
 326   0.0000       0.460507        12.5310 
 327   0.0000       0.463777        12.6200 
 328   0.0000       0.466873        12.7043 
 329   0.0000       0.468605        12.7514 
 330   0.0000       0.470985        12.8162 
 331   0.0000       0.473108        12.8739 
 332   0.0000       0.475220        12.9314 
 333   0.0000       0.478747        13.0274 
 334   0.0000       0.480388        13.0720 
 335   0.0000       0.483534        13.1576 
 336   0.0000       0.486971        13.2512 
 337   0.0000       0.488913        13.3040 
 338   0.0000       0.490682        13.3521 
 339   0.0000       0.492030        13.3888 
 340   0.0000       0.495644        13.4872 
 341   0.0000       0.497672        13.5423 
 342   0.0000       0.499942        13.6041 
 343   0.0000       0.502031        13.6610 
 344   0.0000       0.503003        13.6874 
 345   0.0000       0.506639        13.7863 
 346   0.0000       0.510891        13.9021 
 347   0.0000       0.512970        13.9586 
 348   0.0000       0.514053        13.9881 
 349   0.0000       0.519192        14.1279 
 350   0.0000       0.520877        14.1738 
 351   0.0000       0.521918        14.2021 
 352   0.0000       0.525541        14.3007 
 353   0.0000       0.527872        14.3641 
 354   0.0000       0.532636        14.4938 
 355   0.0000       0.534776        14.5520 
 356   0.0000       0.537611        14.6291 
 357   0.0000       0.541322        14.7301 
 358   0.0000       0.541900        14.7459 
 359   0.0000       0.542358        14.7583 
 360   0.0000       0.546817        14.8796 
 361   0.0000       0.549821        14.9614 
 362   0.0000       0.552420        15.0321 
 363   0.0000       0.553791        15.0694 
 364   0.0000       0.555790        15.1238 
 365   0.0000       0.559225        15.2173 
 366   0.0000       0.561062        15.2673 
 367   0.0000       0.564279        15.3548 
 368   0.0000       0.565453        15.3867 
 369   0.0000       0.568150        15.4601 
 370   0.0000       0.570662        15.5285 
 371   0.0000       0.571857        15.5610 
 372   0.0000       0.577699        15.7200 
 373   0.0000       0.580046        15.7838 
 374   0.0000       0.581758        15.8304 
 375   0.0000       0.583516        15.8783 
 376   0.0000       0.587691        15.9919 
 377   0.0000       0.591534        16.0965 
 378   0.0000       0.592668        16.1273 
 379   0.0000       0.598477        16.2854 
 380   0.0000       0.601769        16.3750 
 381   0.0000       0.602290        16.3891 
 382   0.0000       0.604937        16.4612 
 383   0.0000       0.607571        16.5329 
 384   0.0000       0.612587        16.6693 
 385   0.0000       0.613836        16.7033 
 386   0.0000       0.617336        16.7986 
 387   0.0000       0.618414        16.8279 
 388   0.0000       0.624489        16.9932 
 389   0.0000       0.628728        17.1086 
 390   0.0000       0.629727        17.1357 
 391   0.0000       0.630395        17.1539 
 392   0.0000       0.633186        17.2299 
 393   0.0000       0.640308        17.4237 
 394   0.0000       0.642554        17.4848 
 395   0.0000       0.644768        17.5450 
 396   0.0000       0.647851        17.6289 
 397   0.0000       0.651833        17.7373 
 398   0.0000       0.655150        17.8275 
 399   0.0000       0.655707        17.8427 
 400   0.0000       0.661173        17.9914 
 401   0.0000       0.661979        18.0134 
 402   0.0000       0.665512        18.1095 
 403   0.0000       0.666712        18.1421 
 404   0.0000       0.668157        18.1815 
 405   0.0000       0.674958        18.3665 
 406   0.0000       0.676451        18.4072 
 407   0.0000       0.677369        18.4322 
 408   0.0000       0.682030        18.5590 
 409   0.0000       0.686515        18.6810 
 410   0.0000       0.690936        18.8013 
 411   0.0000       0.695939        18.9375 
 412   0.0000       0.697278        18.9739 
 413   0.0000       0.699918        19.0457 
 414   0.0000       0.700228        19.0542 
 415   0.0000       0.704432        19.1686 
 416   0.0000       0.707539        19.2531 
 417   0.0000       0.709163        19.2973 
 418   0.0000       0.712398        19.3853 
 419   0.0000       0.713447        19.4139 
 420   0.0000       0.716715        19.5028 
 421   0.0000       0.717652        19.5283 
 422   0.0000       0.723283        19.6815 
 423   0.0000       0.724348        19.7105 
 424   0.0000       0.726786        19.7769 
 425   0.0000       0.730427        19.8759 
 426   0.0000       0.732125        19.9221 
 427   0.0000       0.736194        20.0329 
 428   0.0000       0.739495        20.1227 
 429   0.0000       0.746168        20.3043 
 430   0.0000       0.748779        20.3753 
 431   0.0000       0.751926        20.4609 
 432   0.0000       0.756468        20.5845 
 433   0.0000       0.760016        20.6811 
 434   0.0000       0.764185        20.7945 
 435   0.0000       0.766467        20.8566 
 436   0.0000       0.769517        20.9396 
 437   0.0000       0.774181        21.0665 
 438   0.0000       0.777780        21.1645 
 439   0.0000       0.781836        21.2748 
 440   0.0000       0.787896        21.4397 
 441   0.0000       0.788604        21.4590 
 442   0.0000       0.793695        21.5975 
 443   0.0000       0.795286        21.6408 
 444   0.0000       0.798642        21.7322 
 445   0.0000       0.802270        21.8309 
 446   0.0000       0.805273        21.9126 
 447   0.0000       0.810527        22.0556 
 448   0.0000       0.813854        22.1461 
 449   0.0000       0.820035        22.3143 
 450   0.0000       0.823881        22.4189 
 451   0.0000       0.825317        22.4580 
 452   0.0000       0.831147        22.6167 
 453   0.0000       0.835441        22.7335 
 454   0.0000       0.838313        22.8116 
 455   0.0000       0.843696        22.9581 
 456   0.0000       0.850182        23.1346 
 457   0.0000       0.851087        23.1593 
 458   0.0000       0.855414        23.2770 
 459   0.0000       0.858098        23.3500 
 460   0.0000       0.859846        23.3976 
 461   0.0000       0.863865        23.5070 
 462   0.0000       0.868033        23.6204 
 463   0.0000       0.873870        23.7792 
 464   0.0000       0.878774        23.9127 
 465   0.0000       0.882654        24.0182 
 466   0.0000       0.884786        24.0762 
 467   0.0000       0.887605        24.1530 
 468   0.0000       0.892167        24.2771 
 469   0.0000       0.892353        24.2822 
 470   0.0000       0.896542        24.3962 
 471   0.0000       0.902582        24.5605 
 472   0.0000       0.906063        24.6552 
 473   0.0000       0.907741        24.7009 
 474   0.0000       0.911469        24.8023 
 475   0.0000       0.919726        25.0270 
 476   0.0000       0.923011        25.1164 
 477   0.0000       0.925275        25.1780 
 478   0.0000       0.935080        25.4448 
 479   0.0000       0.939325        25.5603 
 480   0.0000       0.942439        25.6451 
 481   0.0000       0.943547        25.6752 
 482   0.0000       0.949592        25.8397 
 483   0.0000       0.956092        26.0166 
 484   0.0000       0.959537        26.1103 
 485   0.0000       0.960850        26.1460 
 486   0.0000       0.965249        26.2658 
 487   0.0000       0.966806        26.3081 
 488   0.0000       0.970169        26.3996 
 489   0.0000       0.973973        26.5032 
 490   0.0000       0.977597        26.6018 
 491   0.0000       0.985110        26.8062 
 492   0.0000       0.987734        26.8776 
 493   0.0000       0.991860        26.9899 
 494   0.0000       0.996852        27.1257 
 495   0.0000       0.999985        27.2110 
 496   0.0000       1.003039        27.2941 
 497   0.0000       1.005544        27.3622 
 498   0.0000       1.013247        27.5718 
 499   0.0000       1.013743        27.5853 
 500   0.0000       1.022980        27.8367 
 501   0.0000       1.028235        27.9797 
 502   0.0000       1.034401        28.1475 
 503   0.0000       1.035277        28.1713 
 504   0.0000       1.039631        28.2898 
 505   0.0000       1.046700        28.4822 
 506   0.0000       1.047270        28.4977 
 507   0.0000       1.051777        28.6203 
 508   0.0000       1.053677        28.6720 
 509   0.0000       1.058904        28.8142 
 510   0.0000       1.064912        28.9777 
 511   0.0000       1.066375        29.0175 
 512   0.0000       1.070706        29.1354 
 513   0.0000       1.073109        29.2008 
 514   0.0000       1.075505        29.2660 
 515   0.0000       1.076817        29.3017 
 516   0.0000       1.084832        29.5198 
 517   0.0000       1.090456        29.6728 
 518   0.0000       1.094020        29.7698 
 519   0.0000       1.101889        29.9839 
 520   0.0000       1.105044        30.0698 
 521   0.0000       1.107241        30.1295 
 522   0.0000       1.112266        30.2663 
 523   0.0000       1.114142        30.3173 
 524   0.0000       1.115945        30.3664 
 525   0.0000       1.122757        30.5518 
 526   0.0000       1.125894        30.6371 
 527   0.0000       1.128037        30.6954 
 528   0.0000       1.129809        30.7437 
 529   0.0000       1.132519        30.8174 
 530   0.0000       1.134679        30.8762 
 531   0.0000       1.139989        31.0207 
 532   0.0000       1.144958        31.1559 
 533   0.0000       1.148602        31.2551 
 534   0.0000       1.149870        31.2896 
 535   0.0000       1.151957        31.3463 
 536   0.0000       1.155054        31.4306 
 537   0.0000       1.157019        31.4841 
 538   0.0000       1.162814        31.6418 
 539   0.0000       1.174193        31.9514 
 540   0.0000       1.177914        32.0527 
 541   0.0000       1.185896        32.2699 
 542   0.0000       1.189603        32.3707 
 543   0.0000       1.194461        32.5029 
 544   0.0000       1.197288        32.5799 
 545   0.0000       1.204270        32.7699 
 546   0.0000       1.206745        32.8372 
 547   0.0000       1.208508        32.8852 
 548   0.0000       1.213513        33.0214 
 549   0.0000       1.218885        33.1676 
 550   0.0000       1.225088        33.3363 
 551   0.0000       1.227305        33.3967 
 552   0.0000       1.231039        33.4983 
[...]
      f0      :    -0.000000  f :     0.000000
      f+1     :     0.000000
      f-1     :     0.000000
      f+2     :    -0.000000
      f-2     :    -0.000000
      f+3     :    -0.000000
      f-3     :     0.000000
 59 O s       :     0.004713  s :     0.004713
      pz      :     0.004220  p :     0.022259
      px      :     0.014321
      py      :     0.003718
      dz2     :     0.000002  d :     0.000735
      dxz     :     0.000327
      dyz     :     0.000007
      dx2y2   :     0.000009
      dxy     :     0.000389
      f0      :     0.000010  f :     0.000043
      f+1     :     0.000001
      f-1     :    -0.000004
      f+2     :     0.000007
      f-2     :     0.000011
      f+3     :     0.000002
      f-3     :     0.000017
 60 H s       :    -0.000151  s :    -0.000151
      pz      :    -0.000125  p :    -0.000367
      px      :    -0.000064
      py      :    -0.000178
 61 H s       :    -0.000238  s :    -0.000238
      pz      :     0.000008  p :     0.000022
      px      :    -0.000004
      py      :     0.000019
 62 H s       :    -0.000072  s :    -0.000072
      pz      :    -0.000001  p :     0.000003
      px      :     0.000003
      py      :     0.000001
 63 H s       :    -0.000003  s :    -0.000003
      pz      :     0.000000  p :    -0.000000
      px      :    -0.000000
      py      :    -0.000000
 64 H s       :    -0.000034  s :    -0.000034
      pz      :    -0.000001  p :     0.000004
      px      :     0.000006
      py      :    -0.000001
 65 H s       :    -0.000140  s :    -0.000140
      pz      :    -0.000007  p :     0.000006
      px      :    -0.000004
      py      :     0.000018
 66 H s       :    -0.000002  s :    -0.000002
      pz      :    -0.000001  p :    -0.000001
      px      :     0.000001
      py      :    -0.000001
 67 H s       :    -0.000011  s :    -0.000011
      pz      :     0.000001  p :     0.000005
      px      :     0.000002
      py      :     0.000002
 68 H s       :    -0.000005  s :    -0.000005
      pz      :    -0.000000  p :     0.000001
      px      :     0.000001
      py      :     0.000000
 69 H s       :    -0.000047  s :    -0.000047
      pz      :     0.000002  p :     0.000003
      px      :     0.000001
      py      :     0.000000
 70 H s       :    -0.000537  s :    -0.000537
      pz      :     0.000090  p :     0.000649
      px      :     0.000296
      py      :     0.000264
 71 O s       :     0.019572  s :     0.019572
      pz      :     0.076814  p :     0.526466
      px      :     0.006090
      py      :     0.443562
      dz2     :     0.000419  d :     0.012282
      dxz     :     0.000175
      dyz     :     0.000521
      dx2y2   :     0.002486
      dxy     :     0.008680
      f0      :     0.000068  f :     0.002014
      f+1     :     0.000173
      f-1     :     0.000028
      f+2     :     0.000176
      f-2     :     0.000471
      f+3     :    -0.000029
      f-3     :     0.001128
 72 O s       :     0.019179  s :     0.019179
      pz      :     0.085674  p :     0.559348
      px      :    -0.007596
      py      :     0.481271
      dz2     :    -0.000270  d :     0.012283
      dxz     :     0.001462
      dyz     :     0.001819
      dx2y2   :     0.002713
      dxy     :     0.006559
      f0      :     0.000044  f :     0.001902
      f+1     :     0.000256
      f-1     :     0.000024
      f+2     :     0.000103
      f-2     :     0.000449
      f+3     :    -0.000003
      f-3     :     0.001029
 73 H s       :    -0.000453  s :    -0.000453
      pz      :     0.000145  p :     0.000356
      px      :     0.000138
      py      :     0.000073
 74 H s       :    -0.000491  s :    -0.000491
      pz      :     0.000128  p :     0.000383
      px      :     0.000186
      py      :     0.000068
 75 H s       :     0.000230  s :     0.000230
      pz      :     0.000002  p :     0.000038
      px      :     0.000032
      py      :     0.000005
 76 H s       :    -0.000159  s :    -0.000159
      pz      :     0.000047  p :     0.000169
      px      :     0.000034
      py      :     0.000088
 77 H s       :    -0.000107  s :    -0.000107
      pz      :     0.000063  p :     0.000138
      px      :     0.000046
      py      :     0.000029
 78 H s       :    -0.000098  s :    -0.000098
      pz      :     0.000022  p :     0.000040
      px      :     0.000006
      py      :     0.000012


                      *****************************
                      * MAYER POPULATION ANALYSIS *
                      *****************************

  NA   - Mulliken gross atomic population
  ZA   - Total nuclear charge
  QA   - Mulliken gross atomic charge
  VA   - Mayer's total valence
  BVA  - Mayer's bonded valence
  FA   - Mayer's free valence

  ATOM       NA         ZA         QA         VA         BVA        FA
  0 C      6.0451     6.0000    -0.0451     3.8447     3.8445     0.0002
  1 N      7.3262     7.0000    -0.3262     3.3151     3.3151     0.0000
  2 H      0.7075     1.0000     0.2925     0.9188     0.9188     0.0000
  3 C      5.8270     6.0000     0.1730     3.8840     3.8839     0.0001
  4 H      0.7887     1.0000     0.2113     0.9730     0.9730     0.0000
  5 N      7.2623     7.0000    -0.2623     3.1195     3.1185     0.0010
  6 C      6.0545     6.0000    -0.0545     3.9433     3.9431     0.0002
  7 H      0.8106     1.0000     0.1894     0.9743     0.9743     0.0000
  8 C      6.0990     6.0000    -0.0990     3.9019     3.9017     0.0003
  9 N      7.3207     7.0000    -0.3207     3.3290     3.3290     0.0000
 10 H      0.7113     1.0000     0.2887     0.9217     0.9217     0.0000
 11 C      5.8289     6.0000     0.1711     3.9680     3.9677     0.0003
 12 H      0.8093     1.0000     0.1907     0.9570     0.9570     0.0000
 13 N      7.2595     7.0000    -0.2595     2.9208     2.9188     0.0020
 14 C      6.0015     6.0000    -0.0015     3.9336     3.9334     0.0002
 15 H      0.8236     1.0000     0.1764     0.9495     0.9495     0.0000
 16 C      6.3634     6.0000    -0.3634     3.9161     3.9161     0.0000
 17 H      0.8664     1.0000     0.1336     0.9744     0.9744     0.0000
 18 H      0.8516     1.0000     0.1484     0.9719     0.9719     0.0000
 19 C      5.2776     6.0000     0.7224     3.8112     3.8112     0.0001
 20 O      8.7169     8.0000    -0.7169     1.6371     1.6355     0.0016
 21 O      8.6168     8.0000    -0.6168     1.7231     1.7220     0.0010
 22 C      6.0533     6.0000    -0.0533     3.8869     3.8869     0.0001
 23 N      7.3308     7.0000    -0.3308     3.3564     3.3564     0.0000
 24 H      0.7049     1.0000     0.2951     0.9185     0.9185     0.0000
 25 C      5.7758     6.0000     0.2242     3.9410     3.9410     0.0001
 26 H      0.8237     1.0000     0.1763     0.9726     0.9726     0.0000
 27 N      7.3564     7.0000    -0.3564     2.9220     2.9206     0.0014
 28 C      6.0563     6.0000    -0.0563     3.9155     3.9154     0.0001
 29 H      0.8147     1.0000     0.1853     0.9747     0.9747     0.0000
 30 C      6.0527     6.0000    -0.0527     3.8914     3.8913     0.0000
 31 N      7.3310     7.0000    -0.3310     3.3504     3.3504     0.0000
 32 H      0.7067     1.0000     0.2933     0.9192     0.9192     0.0000
 33 C      5.8131     6.0000     0.1869     3.9153     3.9152     0.0000
 34 H      0.7942     1.0000     0.2058     0.9520     0.9520     0.0000
 35 N      7.3494     7.0000    -0.3494     2.9866     2.9854     0.0012
 36 C      6.0673     6.0000    -0.0673     3.8656     3.8655     0.0000
 37 H      0.7714     1.0000     0.2286     0.9862     0.9862     0.0000
 38 C      6.3310     6.0000    -0.3310     3.9223     3.9223     0.0000
 39 H      0.8929     1.0000     0.1071     0.9750     0.9750     0.0000
 40 H      0.8552     1.0000     0.1448     0.9778     0.9778     0.0000
 41 C      5.3608     6.0000     0.6392     3.9496     3.9496     0.0000
 42 O      8.6637     8.0000    -0.6637     1.6401     1.6385     0.0017
 43 O      8.6872     8.0000    -0.6872     1.7391     1.7391     0.0000
 44 Fe    24.6646    26.0000     1.3354     7.4288     2.8479     4.5809
 45 Fe    24.6777    26.0000     1.3223     7.4282     2.8336     4.5946
 46 O      9.1105     8.0000    -1.1105     1.1155     1.1089     0.0067
 47 H      0.5756     1.0000     0.4244     0.9136     0.9136     0.0000
 48 C      5.7271     6.0000     0.2729     3.7169     3.7169     0.0000
 49 C      5.8884     6.0000     0.1116     4.0862     4.0862     0.0000
 50 C      5.8430     6.0000     0.1570     3.9008     3.9008     0.0000
 51 C      5.8962     6.0000     0.1038     4.0540     4.0540     0.0000
 52 C      5.9056     6.0000     0.0944     4.1699     4.1699     0.0000
 53 C      5.8821     6.0000     0.1179     3.8570     3.8570     0.0000
 54 O      8.7614     8.0000    -0.7614     1.5533     1.5456     0.0077
 55 O      8.5772     8.0000    -0.5772     1.8486     1.8486     0.0000
 56 O      8.5224     8.0000    -0.5224     1.8702     1.8702     0.0000
 57 O      8.4879     8.0000    -0.4879     1.8870     1.8870     0.0000
 58 O      8.5473     8.0000    -0.5473     1.8192     1.8192     0.0000
 59 O      8.5720     8.0000    -0.5720     1.6973     1.6963     0.0011
 60 H      0.8905     1.0000     0.1095     0.9926     0.9926     0.0000
 61 H      0.8958     1.0000     0.1042     0.9654     0.9654     0.0000
 62 H      0.9131     1.0000     0.0869     0.9811     0.9811     0.0000
 63 H      0.9257     1.0000     0.0743     0.9929     0.9929     0.0000
 64 H      0.9065     1.0000     0.0935     0.9936     0.9936     0.0000
 65 H      0.9355     1.0000     0.0645     0.9824     0.9824     0.0000
 66 H      0.6539     1.0000     0.3461     0.8897     0.8897     0.0000
 67 H      0.6660     1.0000     0.3340     0.8982     0.8982     0.0000
 68 H      0.6999     1.0000     0.3001     0.9245     0.9245     0.0000
 69 H      0.6791     1.0000     0.3209     0.9169     0.9169     0.0000
 70 H      0.6219     1.0000     0.3781     0.8692     0.8692     0.0000
 71 O      8.3000     8.0000    -0.3000     1.8068     1.5072     0.2995
 72 O      8.2991     8.0000    -0.2991     1.7758     1.4300     0.3458
 73 H      0.8154     1.0000     0.1846     0.9715     0.9715     0.0000
 74 H      0.8227     1.0000     0.1773     0.9758     0.9758     0.0000
 75 H      0.8769     1.0000     0.1231     0.9715     0.9715     0.0000
 76 H      0.8087     1.0000     0.1913     0.9702     0.9702     0.0000
 77 H      0.8061     1.0000     0.1939     0.9690     0.9690     0.0000
 78 H      0.8831     1.0000     0.1169     0.9692     0.9692     0.0000

  Mayer bond orders larger than 0.100000
B(  0-C ,  1-N ) :   1.1174 B(  0-C ,  6-C ) :   1.7261 B(  0-C , 73-H ) :   0.9477 
B(  1-N ,  2-H ) :   0.8942 B(  1-N ,  3-C ) :   1.3097 B(  3-C ,  4-H ) :   0.9506 
B(  3-C ,  5-N ) :   1.4887 B(  5-N ,  6-C ) :   1.1829 B(  5-N , 44-Fe) :   0.5851 
B(  6-C ,  7-H ) :   0.9624 B(  8-C ,  9-N ) :   1.1476 B(  8-C , 14-C ) :   1.7201 
B(  8-C , 74-H ) :   0.9515 B(  9-N , 10-H ) :   0.8961 B(  9-N , 11-C ) :   1.3074 
B( 11-C , 12-H ) :   0.9580 B( 11-C , 13-N ) :   1.5427 B( 13-N , 14-C ) :   1.1970 
B( 13-N , 44-Fe) :   0.4182 B( 14-C , 15-H ) :   0.9655 B( 16-C , 17-H ) :   0.9932 
B( 16-C , 18-H ) :   0.9627 B( 16-C , 19-C ) :   0.9673 B( 16-C , 75-H ) :   0.9834 
B( 19-C , 20-O ) :   1.3294 B( 19-C , 21-O ) :   1.5063 B( 20-O , 45-Fe) :   0.4196 
B( 21-O , 44-Fe) :   0.3069 B( 22-C , 23-N ) :   1.1279 B( 22-C , 28-C ) :   1.7375 
B( 22-C , 76-H ) :   0.9469 B( 23-N , 24-H ) :   0.8931 B( 23-N , 25-C ) :   1.3320 
B( 25-C , 26-H ) :   0.9546 B( 25-C , 27-N ) :   1.4912 B( 27-N , 28-C ) :   1.1940 
B( 27-N , 45-Fe) :   0.4129 B( 28-C , 29-H ) :   0.9648 B( 30-C , 31-N ) :   1.1326 
B( 30-C , 36-C ) :   1.7447 B( 30-C , 77-H ) :   0.9423 B( 31-N , 32-H ) :   0.8933 
B( 31-N , 33-C ) :   1.3306 B( 33-C , 34-H ) :   0.9530 B( 33-C , 35-N ) :   1.4883 
B( 35-N , 36-C ) :   1.1759 B( 35-N , 45-Fe) :   0.4779 B( 36-C , 37-H ) :   0.9261 
B( 38-C , 39-H ) :   0.9562 B( 38-C , 40-H ) :   0.9938 B( 38-C , 41-C ) :   0.9844 
B( 38-C , 78-H ) :   0.9851 B( 41-C , 42-O ) :   1.3736 B( 41-C , 43-O ) :   1.5749 
B( 42-O , 44-Fe) :   0.4113 B( 43-O , 47-H ) :   0.1258 B( 44-Fe, 46-O ) :   0.2681 
B( 44-Fe, 71-O ) :   0.4214 B( 44-Fe, 72-O ) :   0.3272 B( 45-Fe, 46-O ) :   0.3675 
B( 45-Fe, 54-O ) :   0.7488 B( 45-Fe, 59-O ) :   0.2317 B( 46-O , 47-H ) :   0.7426 
B( 48-C , 49-C ) :   0.9347 B( 48-C , 53-C ) :   0.9946 B( 48-C , 54-O ) :   0.8413 
B( 48-C , 60-H ) :   0.9936 B( 49-C , 50-C ) :   0.9732 B( 49-C , 55-O ) :   1.0754 
B( 49-C , 61-H ) :   0.9712 B( 50-C , 51-C ) :   0.9758 B( 50-C , 56-O ) :   0.9878 
B( 50-C , 62-H ) :   0.9976 B( 51-C , 52-C ) :   1.0149 B( 51-C , 57-O ) :   0.9783 
B( 51-C , 63-H ) :   0.9849 B( 52-C , 53-C ) :   1.0007 B( 52-C , 58-O ) :   0.9527 
B( 52-C , 64-H ) :   0.9917 B( 53-C , 59-O ) :   0.7048 B( 53-C , 65-H ) :   0.9861 
B( 55-O , 66-H ) :   0.8795 B( 56-O , 67-H ) :   0.8802 B( 57-O , 68-H ) :   0.8924 
B( 58-O , 69-H ) :   0.8809 B( 59-O , 70-H ) :   0.8412 B( 71-O , 72-O ) :   1.1664 


-------
TIMINGS
-------

Total SCF time: 0 days 5 hours 11 min 28 sec 

Total time                  ....   18688.704 sec
Sum of individual times     ....   18672.822 sec  ( 99.9%)

Fock matrix formation       ....   18559.252 sec  ( 99.3%)
Diagonalization             ....      41.862 sec  (  0.2%)
Density matrix formation    ....       5.094 sec  (  0.0%)
Population analysis         ....       1.737 sec  (  0.0%)
Initial guess               ....       2.737 sec  (  0.0%)
Orbital Transformation      ....      17.094 sec  (  0.1%)
Orbital Orthonormalization  ....       0.000 sec  (  0.0%)
DIIS solution               ....      44.193 sec  (  0.2%)

Maximum memory used throughout the entire SCF-calculation: 452.0 MB

-------------------------   --------------------
FINAL SINGLE POINT ENERGY     -4787.436909534747
-------------------------   --------------------


                            ***************************************
                            *     ORCA property calculations      *
                            ***************************************

                                    ---------------------
                                    Active property flags
                                    ---------------------
   (+) Dipole Moment


------------------------------------------------------------------------------
                       ORCA ELECTRIC PROPERTIES CALCULATION
------------------------------------------------------------------------------

Dipole Moment Calculation                       ... on
Quadrupole Moment Calculation                   ... off
Polarizability Calculation                      ... off
GBWName                                         ... /scratch/RC-highspin_970/RC-highspin.gbw
Electron density file                           ... /scratch/RC-highspin_970/RC-highspin.scfp
The origin for moment calculation is the CENTER OF MASS  = (80.281625, 89.286248 72.190356)

-------------
DIPOLE MOMENT
-------------
                                X             Y             Z
Electronic contribution:     -7.90738       6.10345      -7.80785
Nuclear contribution   :      2.83187      -8.56052       3.37323
                        -----------------------------------------
Total Dipole Moment    :     -5.07551      -2.45707      -4.43462
                        -----------------------------------------
Magnitude (a.u.)       :      7.17383
Magnitude (Debye)      :     18.23443



--------------------
Rotational spectrum 
--------------------
 
Rotational constants in cm-1:     0.002818     0.001896     0.001591 
Rotational constants in MHz :    84.485992    56.848204    47.689819 

 Dipole components along the rotational axes: 
x,y,z [a.u.] :    -3.016082    -6.469705     0.714163 
x,y,z [Debye]:    -7.666270   -16.444684     1.815259 

 
--------------------------------------------------------------------------
WARNING: There was an error initializing an OpenFabrics device.

  Local host:   cnode12
  Local device: mlx5_0
--------------------------------------------------------------------------
[cnode12:100173] 15 more processes have sent help message help-mpi-btl-openib.txt / error in device init
[cnode12:100173] Set MCA parameter "orte_base_help_aggregate" to 0 to see all help / error messages

Timings for individual modules:

Sum of individual times         ...    18692.451 sec (= 311.541 min)
GTO integral calculation        ...        2.942 sec (=   0.049 min)   0.0 %
SCF iterations                  ...    18689.509 sec (= 311.492 min) 100.0 %
                             ****ORCA TERMINATED NORMALLY****
TOTAL RUN TIME: 0 days 5 hours 11 minutes 33 seconds 930 msec

Sender: Unischeduler System <lcz@mgt01>
Subject: Job 133133: <#!/bin/bash
#BSUB -J intel
#BSUB -o RC-highspin.out
#BSUB -n 16
#BSUB -q cqueue
export LD_LIBRARY_PATH=/apps/software/openmpi-4.1.1/lib:/apps/software/orca_5_0_0:$LD_LIBRARY_PATH
export PATH=/apps/software/openmpi-4.1.1/bin:/apps/software/orca_5_0_0:$PATH
mkdir /scratch/RC-highspin_970
scp $USER@mgt01:/apps/users/lcz/newexe8/exe8/task3/RC/HF/autoTrah/RC-highspin.inp /scratch/RC-highspin_970
/apps/software/orca_5_0_0/orca /scratch/RC-highspin_970/RC-highspin.inp >& RC-highspin.out
scp /scratch/RC-highspin_970/*.gbw $USER@mgt01:/apps/users/lcz/newexe8/exe8/task3/RC/HF/autoTrah
scp /scratch/RC-highspin_970/*.xyz $USER@mgt01:/apps/users/lcz/newexe8/exe8/task3/RC/HF/autoTrah
scp /scratch/RC-highspin_970/*.trj $USER@mgt01:/apps/users/lcz/newexe8/exe8/task3/RC/HF/autoTrah> Exited

Job <#!/bin/bash
#BSUB -J intel
#BSUB -o RC-highspin.out
#BSUB -n 16
#BSUB -q cqueue
export LD_LIBRARY_PATH=/apps/software/openmpi-4.1.1/lib:/apps/software/orca_5_0_0:$LD_LIBRARY_PATH
export PATH=/apps/software/openmpi-4.1.1/bin:/apps/software/orca_5_0_0:$PATH
mkdir /scratch/RC-highspin_970
scp $USER@mgt01:/apps/users/lcz/newexe8/exe8/task3/RC/HF/autoTrah/RC-highspin.inp /scratch/RC-highspin_970
/apps/software/orca_5_0_0/orca /scratch/RC-highspin_970/RC-highspin.inp >& RC-highspin.out
scp /scratch/RC-highspin_970/*.gbw $USER@mgt01:/apps/users/lcz/newexe8/exe8/task3/RC/HF/autoTrah
scp /scratch/RC-highspin_970/*.xyz $USER@mgt01:/apps/users/lcz/newexe8/exe8/task3/RC/HF/autoTrah
scp /scratch/RC-highspin_970/*.trj $USER@mgt01:/apps/users/lcz/newexe8/exe8/task3/RC/HF/autoTrah> was submitted from host <mgt01> by user <lcz>.
Job was executed on host(s) <16*cnode12>, in queue <cqueue>, as user <lcz>.
</apps/users/lcz> was used as the home directory.
</apps/users/lcz/newexe8/exe8/task3/RC/HF/autoTrah> was used as the working directory.
Started at 2022-05-18 22:28:49
Results reported at 2022-05-19 03:40:25

Your job looked like:

------------------------------------------------------------
# User input
#!/bin/bash
#BSUB -J intel
#BSUB -o RC-highspin.out
#BSUB -n 16
#BSUB -q cqueue
export LD_LIBRARY_PATH=/apps/software/openmpi-4.1.1/lib:/apps/software/orca_5_0_0:$LD_LIBRARY_PATH
export PATH=/apps/software/openmpi-4.1.1/bin:/apps/software/orca_5_0_0:$PATH
mkdir /scratch/RC-highspin_970
scp $USER@mgt01:/apps/users/lcz/newexe8/exe8/task3/RC/HF/autoTrah/RC-highspin.inp /scratch/RC-highspin_970
/apps/software/orca_5_0_0/orca /scratch/RC-highspin_970/RC-highspin.inp >& RC-highspin.out
scp /scratch/RC-highspin_970/*.gbw $USER@mgt01:/apps/users/lcz/newexe8/exe8/task3/RC/HF/autoTrah
scp /scratch/RC-highspin_970/*.xyz $USER@mgt01:/apps/users/lcz/newexe8/exe8/task3/RC/HF/autoTrah
scp /scratch/RC-highspin_970/*.trj $USER@mgt01:/apps/users/lcz/newexe8/exe8/task3/RC/HF/autoTrah
------------------------------------------------------------

Exited with exit code 1.

Resource usage summary:

    CPU time   :       298510.54 sec.
    Max Memory :             11203 MB
    Max Processes  :              21


The output (if any) follows:

/scratch/RC-highspin_970/*.xyz: No such file or directory
/scratch/RC-highspin_970/*.trj: No such file or directory
