[Molden Format]
[N_ATOMS]
           10
[Atoms]  AU
C     1    6      -3.153812        1.523264        0.000000
H     2    1      -2.669104        3.534007        0.000000
H     3    1      -5.159592        1.037028        0.000000
C     4    6      -1.352024       -0.263651        0.000000
H     5    1      -1.897611       -2.263346        0.000000
C     6    6       1.352024        0.263651        0.000000
H     7    1       1.897611        2.263346        0.000000
C     8    6       3.153812       -1.523264        0.000000
H     9    1       2.669104       -3.534007        0.000000
H    10    1       5.159592       -1.037028        0.000000
[5D7F9G]
[GTO]
    1
    s    8
   0.823600000E+04   0.542430189E-03
   0.123500000E+04   0.419642790E-02
   0.280800000E+03   0.215409141E-01
   0.792700000E+02   0.836149496E-01
   0.255900000E+02   0.239871619E+00
   0.899700000E+01   0.443751820E+00
   0.331900000E+01   0.353579696E+00
   0.364300000E+00  -0.917636608E-02
    s    8
   0.823600000E+04  -0.196392234E-03
   0.123500000E+04  -0.152595027E-02
   0.280800000E+03  -0.789044903E-02
   0.792700000E+02  -0.315148705E-01
   0.255900000E+02  -0.969100083E-01
   0.899700000E+01  -0.220541526E+00
   0.331900000E+01  -0.296069113E+00
   0.364300000E+00   0.104050343E+01
    s    1
   0.905900000E+00   0.100000000E+01
    s    1
   0.128500000E+00   0.100000000E+01
    p    3
   0.187100000E+02   0.394263872E-01
   0.413300000E+01   0.244088985E+00
   0.120000000E+01   0.815492009E+00
    p    1
   0.382700000E+00   0.100000000E+01
    p    1
   0.120900000E+00   0.100000000E+01
    d    1
   0.109700000E+01   0.100000000E+01
    d    1
   0.318000000E+00   0.100000000E+01
    f    1
   0.761000000E+00   0.100000000E+01
 
    2
    s    3
   0.338700000E+02   0.254948632E-01
   0.509500000E+01   0.190362766E+00
   0.115900000E+01   0.852162022E+00
    s    1
   0.325800000E+00   0.100000000E+01
    s    1
   0.102700000E+00   0.100000000E+01
    p    1
   0.140700000E+01   0.100000000E+01
    p    1
   0.388000000E+00   0.100000000E+01
    d    1
   0.105700000E+01   0.100000000E+01
 
    3
    s    3
   0.338700000E+02   0.254948632E-01
   0.509500000E+01   0.190362766E+00
   0.115900000E+01   0.852162022E+00
    s    1
   0.325800000E+00   0.100000000E+01
    s    1
   0.102700000E+00   0.100000000E+01
    p    1
   0.140700000E+01   0.100000000E+01
    p    1
   0.388000000E+00   0.100000000E+01
    d    1
   0.105700000E+01   0.100000000E+01
 
    4
    s    8
   0.823600000E+04   0.542430189E-03
   0.123500000E+04   0.419642790E-02
   0.280800000E+03   0.215409141E-01
   0.792700000E+02   0.836149496E-01
   0.255900000E+02   0.239871619E+00
   0.899700000E+01   0.443751820E+00
   0.331900000E+01   0.353579696E+00
   0.364300000E+00  -0.917636608E-02
    s    8
   0.823600000E+04  -0.196392234E-03
   0.123500000E+04  -0.152595027E-02
   0.280800000E+03  -0.789044903E-02
   0.792700000E+02  -0.315148705E-01
   0.255900000E+02  -0.969100083E-01
   0.899700000E+01  -0.220541526E+00
   0.331900000E+01  -0.296069113E+00
   0.364300000E+00   0.104050343E+01
    s    1
   0.905900000E+00   0.100000000E+01
    s    1
   0.128500000E+00   0.100000000E+01
    p    3
   0.187100000E+02   0.394263872E-01
   0.413300000E+01   0.244088985E+00
   0.120000000E+01   0.815492009E+00
    p    1
   0.382700000E+00   0.100000000E+01
    p    1
   0.120900000E+00   0.100000000E+01
    d    1
   0.109700000E+01   0.100000000E+01
    d    1
   0.318000000E+00   0.100000000E+01
    f    1
   0.761000000E+00   0.100000000E+01
 
    5
    s    3
   0.338700000E+02   0.254948632E-01
   0.509500000E+01   0.190362766E+00
   0.115900000E+01   0.852162022E+00
    s    1
   0.325800000E+00   0.100000000E+01
    s    1
   0.102700000E+00   0.100000000E+01
    p    1
   0.140700000E+01   0.100000000E+01
    p    1
   0.388000000E+00   0.100000000E+01
    d    1
   0.105700000E+01   0.100000000E+01
 
    6
    s    8
   0.823600000E+04   0.542430189E-03
   0.123500000E+04   0.419642790E-02
   0.280800000E+03   0.215409141E-01
   0.792700000E+02   0.836149496E-01
   0.255900000E+02   0.239871619E+00
   0.899700000E+01   0.443751820E+00
   0.331900000E+01   0.353579696E+00
   0.364300000E+00  -0.917636608E-02
    s    8
   0.823600000E+04  -0.196392234E-03
   0.123500000E+04  -0.152595027E-02
   0.280800000E+03  -0.789044903E-02
   0.792700000E+02  -0.315148705E-01
   0.255900000E+02  -0.969100083E-01
   0.899700000E+01  -0.220541526E+00
   0.331900000E+01  -0.296069113E+00
   0.364300000E+00   0.104050343E+01
    s    1
   0.905900000E+00   0.100000000E+01
    s    1
   0.128500000E+00   0.100000000E+01
    p    3
   0.187100000E+02   0.394263872E-01
   0.413300000E+01   0.244088985E+00
   0.120000000E+01   0.815492009E+00
    p    1
   0.382700000E+00   0.100000000E+01
    p    1
   0.120900000E+00   0.100000000E+01
    d    1
   0.109700000E+01   0.100000000E+01
    d    1
   0.318000000E+00   0.100000000E+01
    f    1
   0.761000000E+00   0.100000000E+01
 
    7
    s    3
   0.338700000E+02   0.254948632E-01
   0.509500000E+01   0.190362766E+00
   0.115900000E+01   0.852162022E+00
    s    1
   0.325800000E+00   0.100000000E+01
    s    1
   0.102700000E+00   0.100000000E+01
    p    1
   0.140700000E+01   0.100000000E+01
    p    1
   0.388000000E+00   0.100000000E+01
    d    1
   0.105700000E+01   0.100000000E+01
 
    8
    s    8
   0.823600000E+04   0.542430189E-03
   0.123500000E+04   0.419642790E-02
   0.280800000E+03   0.215409141E-01
   0.792700000E+02   0.836149496E-01
   0.255900000E+02   0.239871619E+00
   0.899700000E+01   0.443751820E+00
   0.331900000E+01   0.353579696E+00
   0.364300000E+00  -0.917636608E-02
    s    8
   0.823600000E+04  -0.196392234E-03
   0.123500000E+04  -0.152595027E-02
   0.280800000E+03  -0.789044903E-02
   0.792700000E+02  -0.315148705E-01
   0.255900000E+02  -0.969100083E-01
   0.899700000E+01  -0.220541526E+00
   0.331900000E+01  -0.296069113E+00
   0.364300000E+00   0.104050343E+01
    s    1
   0.905900000E+00   0.100000000E+01
    s    1
   0.128500000E+00   0.100000000E+01
    p    3
   0.187100000E+02   0.394263872E-01
   0.413300000E+01   0.244088985E+00
   0.120000000E+01   0.815492009E+00
    p    1
   0.382700000E+00   0.100000000E+01
    p    1
   0.120900000E+00   0.100000000E+01
    d    1
   0.109700000E+01   0.100000000E+01
    d    1
   0.318000000E+00   0.100000000E+01
    f    1
   0.761000000E+00   0.100000000E+01
 
    9
    s    3
   0.338700000E+02   0.254948632E-01
   0.509500000E+01   0.190362766E+00
   0.115900000E+01   0.852162022E+00
    s    1
   0.325800000E+00   0.100000000E+01
    s    1
   0.102700000E+00   0.100000000E+01
    p    1
   0.140700000E+01   0.100000000E+01
    p    1
   0.388000000E+00   0.100000000E+01
    d    1
   0.105700000E+01   0.100000000E+01
 
   10
    s    3
   0.338700000E+02   0.254948632E-01
   0.509500000E+01   0.190362766E+00
   0.115900000E+01   0.852162022E+00
    s    1
   0.325800000E+00   0.100000000E+01
    s    1
   0.102700000E+00   0.100000000E+01
    p    1
   0.140700000E+01   0.100000000E+01
    p    1
   0.388000000E+00   0.100000000E+01
    d    1
   0.105700000E+01   0.100000000E+01
 
[MO]
 Sym= Ag  
 Ene=       -11.228203
 Spin= Alpha
 Occup=       2.000000
   1        0.065345294
   2        0.000048689
   3        0.002927399
   4       -0.000786659
   5        0.000186427
   6       -0.000140463
   7        0.000000000
   8       -0.001021325
   9        0.000563458
  10        0.000000000
  11       -0.000882638
  12        0.000327315
  13        0.000000000
  14        0.000082751
  15        0.000000000
  16        0.000000000
  17        0.000032640
  18        0.000109590
  19       -0.000061910
  20        0.000000000
  21        0.000000000
  22       -0.000424992
  23        0.000848580
  24        0.000000000
  25        0.000117729
  26       -0.000108232
  27        0.000000000
  28        0.000000000
  29        0.000034474
  30        0.000092003
  31       -0.000028337
  32       -0.000687519
  33       -0.000058890
  34        0.000002982
  35        0.000027979
  36        0.000000000
  37       -0.000035268
  38        0.000286259
  39        0.000000000
  40        0.000008432
  41        0.000000000
  42        0.000000000
  43        0.000014613
  44        0.000013719
  45        0.000009336
  46       -0.000629738
  47       -0.000423875
  48       -0.000050435
  49       -0.000012687
  50        0.000000000
  51       -0.000345826
  52        0.000174737
  53        0.000000000
  54        0.000030975
  55        0.000000000
  56        0.000000000
  57       -0.000046883
  58        0.000009718
  59        0.688705883
  60        0.001299834
  61        0.029436399
  62        0.002988724
  63        0.000349923
  64       -0.000152689
  65        0.000000000
  66       -0.000385979
  67        0.001328427
  68        0.000000000
  69       -0.000344975
  70        0.000826714
  71        0.000000000
  72       -0.000410156
  73        0.000000000
  74        0.000000000
  75        0.000035567
  76       -0.000161639
  77        0.000021515
  78        0.000000000
  79        0.000000000
  80       -0.000593761
  81       -0.000422117
  82        0.000000000
  83        0.000140105
  84       -0.000004848
  85        0.000000000
  86        0.000000000
  87        0.000110749
  88        0.000219337
  89        0.000088981
  90        0.000538509
  91       -0.000150235
  92       -0.000073741
  93       -0.000148276
  94        0.000000000
  95       -0.000086116
  96        0.000273380
  97        0.000000000
  98        0.000033340
  99        0.000000000
 100        0.000000000
 101        0.000084276
 102       -0.000113597
 103        0.688705883
 104        0.001299834
 105        0.029436399
 106        0.002988724
 107       -0.000349923
 108        0.000152689
 109        0.000000000
 110        0.000385979
 111       -0.001328427
 112        0.000000000
 113        0.000344975
 114       -0.000826714
 115        0.000000000
 116       -0.000410156
 117        0.000000000
 118        0.000000000
 119        0.000035567
 120       -0.000161639
 121        0.000021515
 122        0.000000000
 123        0.000000000
 124       -0.000593761
 125       -0.000422117
 126        0.000000000
 127       -0.000140105
 128        0.000004848
 129        0.000000000
 130        0.000000000
 131       -0.000110749
 132       -0.000219337
 133        0.000088981
 134        0.000538509
 135       -0.000150235
 136        0.000073741
 137        0.000148276
 138        0.000000000
 139        0.000086116
 140       -0.000273380
 141        0.000000000
 142        0.000033340
 143        0.000000000
 144        0.000000000
 145        0.000084276
 146       -0.000113597
 147        0.065345294
 148        0.000048689
 149        0.002927399
 150       -0.000786659
 151       -0.000186427
 152        0.000140463
 153        0.000000000
 154        0.001021325
 155       -0.000563458
 156        0.000000000
 157        0.000882638
 158       -0.000327315
 159        0.000000000
 160        0.000082751
 161        0.000000000
 162        0.000000000
 163        0.000032640
 164        0.000109590
 165       -0.000061910
 166        0.000000000
 167        0.000000000
 168       -0.000424992
 169        0.000848580
 170        0.000000000
 171       -0.000117729
 172        0.000108232
 173        0.000000000
 174        0.000000000
 175       -0.000034474
 176       -0.000092003
 177       -0.000028337
 178       -0.000687519
 179       -0.000058890
 180       -0.000002982
 181       -0.000027979
 182        0.000000000
 183        0.000035268
 184       -0.000286259
 185        0.000000000
 186        0.000008432
 187        0.000000000
 188        0.000000000
 189        0.000014613
 190        0.000013719
 191        0.000009336
 192       -0.000629738
 193       -0.000423875
 194        0.000050435
 195        0.000012687
 196        0.000000000
 197        0.000345826
 198       -0.000174737
 199        0.000000000
 200        0.000030975
 201        0.000000000
 202        0.000000000
 203       -0.000046883
 204        0.000009718
 Sym= Ag  
 Ene=       -11.219747
 Spin= Alpha
 Occup=       2.000000
   1       -0.688774688
   2       -0.001157314
   3       -0.029321132
   4       -0.002673543
   5        0.000188134
   6       -0.000223459
   7        0.000000000
   8       -0.001359382
   9        0.001726316
  10        0.000000000
  11       -0.000424475
  12        0.000276199
  13        0.000000000
  14        0.000504375
  15        0.000000000
  16        0.000000000
  17       -0.000010090
  18        0.000150496
  19       -0.000146237
  20        0.000000000
  21        0.000000000
  22        0.000355488
  23        0.000977055
  24        0.000000000
  25        0.000008832
  26       -0.000009321
  27        0.000000000
  28        0.000000000
  29        0.000399435
  30        0.000380658
  31       -0.000074696
  32       -0.000854860
  33        0.000330374
  34       -0.000043569
  35       -0.000207104
  36        0.000000000
  37       -0.000065597
  38        0.000386396
  39        0.000000000
  40       -0.000036313
  41        0.000000000
  42        0.000000000
  43       -0.000150523
  44        0.000086132
  45       -0.000072573
  46       -0.001160829
  47        0.000255310
  48        0.000224626
  49        0.000047665
  50        0.000000000
  51       -0.000410128
  52       -0.000051279
  53        0.000000000
  54       -0.000054433
  55        0.000000000
  56        0.000000000
  57        0.000168031
  58        0.000072468
  59        0.065817036
  60        0.000368885
  61        0.002682478
  62        0.000703712
  63        0.000162644
  64       -0.000172096
  65        0.000000000
  66       -0.000535191
  67        0.001377983
  68        0.000000000
  69       -0.000172149
  70        0.000347472
  71        0.000000000
  72       -0.000198946
  73        0.000000000
  74        0.000000000
  75       -0.000031751
  76       -0.000098765
  77        0.000161889
  78        0.000000000
  79        0.000000000
  80        0.001015977
  81       -0.002317151
  82        0.000000000
  83        0.000072332
  84       -0.000112104
  85        0.000000000
  86        0.000000000
  87        0.000118022
  88        0.000133073
  89        0.000054124
  90        0.002253447
  91        0.000114193
  92       -0.000027001
  93        0.000013655
  94        0.000000000
  95       -0.000176717
  96        0.000974745
  97        0.000000000
  98        0.000000967
  99        0.000000000
 100        0.000000000
 101       -0.000060196
 102       -0.000070115
 103        0.065817036
 104        0.000368885
 105        0.002682478
 106        0.000703712
 107       -0.000162644
 108        0.000172096
 109        0.000000000
 110        0.000535191
 111       -0.001377983
 112        0.000000000
 113        0.000172149
 114       -0.000347472
 115        0.000000000
 116       -0.000198946
 117        0.000000000
 118        0.000000000
 119       -0.000031751
 120       -0.000098765
 121        0.000161889
 122        0.000000000
 123        0.000000000
 124        0.001015977
 125       -0.002317151
 126        0.000000000
 127       -0.000072332
 128        0.000112104
 129        0.000000000
 130        0.000000000
 131       -0.000118022
 132       -0.000133073
 133        0.000054124
 134        0.002253447
 135        0.000114193
 136        0.000027001
 137       -0.000013655
 138        0.000000000
 139        0.000176717
 140       -0.000974745
 141        0.000000000
 142        0.000000967
 143        0.000000000
 144        0.000000000
 145       -0.000060196
 146       -0.000070115
 147       -0.688774688
 148       -0.001157314
 149       -0.029321132
 150       -0.002673543
 151       -0.000188134
 152        0.000223459
 153        0.000000000
 154        0.001359382
 155       -0.001726316
 156        0.000000000
 157        0.000424475
 158       -0.000276199
 159        0.000000000
 160        0.000504375
 161        0.000000000
 162        0.000000000
 163       -0.000010090
 164        0.000150496
 165       -0.000146237
 166        0.000000000
 167        0.000000000
 168        0.000355488
 169        0.000977055
 170        0.000000000
 171       -0.000008832
 172        0.000009321
 173        0.000000000
 174        0.000000000
 175       -0.000399435
 176       -0.000380658
 177       -0.000074696
 178       -0.000854860
 179        0.000330374
 180        0.000043569
 181        0.000207104
 182        0.000000000
 183        0.000065597
 184       -0.000386396
 185        0.000000000
 186       -0.000036313
 187        0.000000000
 188        0.000000000
 189       -0.000150523
 190        0.000086132
 191       -0.000072573
 192       -0.001160829
 193        0.000255310
 194       -0.000224626
 195       -0.000047665
 196        0.000000000
 197        0.000410128
 198        0.000051279
 199        0.000000000
 200       -0.000054433
 201        0.000000000
 202        0.000000000
 203        0.000168031
 204        0.000072468
 Sym= Ag  
 Ene=        -1.082610
 Spin= Alpha
 Occup=       2.000000
   1        0.008986771
   2       -0.200468462
   3       -0.040330889
   4       -0.071118875
   5       -0.034275854
   6        0.028143371
   7        0.000000000
   8       -0.031395428
   9        0.025776311
  10        0.000000000
  11       -0.005274534
  12        0.004219201
  13        0.000000000
  14        0.006684021
  15        0.000000000
  16        0.000000000
  17       -0.000836666
  18        0.004914190
  19        0.007076849
  20        0.000000000
  21        0.000000000
  22        0.006978764
  23        0.002133022
  24        0.000000000
  25        0.000377786
  26       -0.000300439
  27        0.000000000
  28        0.000000000
  29        0.003138089
  30        0.003268722
  31       -0.026100920
  32       -0.015049440
  33       -0.001549182
  34       -0.000172870
  35        0.002451117
  36        0.000000000
  37       -0.002365567
  38       -0.003582150
  39        0.000000000
  40        0.000160844
  41        0.000000000
  42        0.000000000
  43       -0.000083975
  44        0.000637361
  45       -0.023657304
  46       -0.020205402
  47       -0.000229633
  48       -0.002041789
  49        0.000084469
  50        0.000000000
  51        0.002122028
  52       -0.001127173
  53        0.000000000
  54       -0.000219754
  55        0.000000000
  56        0.000000000
  57        0.000356762
  58        0.000106035
  59        0.012958220
  60       -0.303711691
  61       -0.060850739
  62       -0.084894355
  63       -0.010401821
  64       -0.026794941
  65        0.000000000
  66       -0.016902574
  67       -0.019467640
  68        0.000000000
  69       -0.001630555
  70        0.000719225
  71        0.000000000
  72        0.010618529
  73        0.000000000
  74        0.000000000
  75       -0.003890688
  76        0.003506280
  77        0.009724970
  78        0.000000000
  79        0.000000000
  80        0.008709752
  81       -0.005171535
  82        0.000000000
  83        0.000358709
  84        0.000145966
  85        0.000000000
  86        0.000000000
  87       -0.005910010
  88       -0.004346972
  89       -0.038844167
  90       -0.022291490
  91       -0.001306582
  92       -0.001118393
  93       -0.003180405
  94        0.000000000
  95        0.001122062
  96        0.006460315
  97        0.000000000
  98        0.000319457
  99        0.000000000
 100        0.000000000
 101       -0.000751783
 102        0.000145114
 103        0.012958220
 104       -0.303711691
 105       -0.060850739
 106       -0.084894355
 107        0.010401821
 108        0.026794941
 109        0.000000000
 110        0.016902574
 111        0.019467640
 112        0.000000000
 113        0.001630555
 114       -0.000719225
 115        0.000000000
 116        0.010618529
 117        0.000000000
 118        0.000000000
 119       -0.003890688
 120        0.003506280
 121        0.009724970
 122        0.000000000
 123        0.000000000
 124        0.008709752
 125       -0.005171535
 126        0.000000000
 127       -0.000358709
 128       -0.000145966
 129        0.000000000
 130        0.000000000
 131        0.005910010
 132        0.004346972
 133       -0.038844167
 134       -0.022291490
 135       -0.001306582
 136        0.001118393
 137        0.003180405
 138        0.000000000
 139       -0.001122062
 140       -0.006460315
 141        0.000000000
 142        0.000319457
 143        0.000000000
 144        0.000000000
 145       -0.000751783
 146        0.000145114
 147        0.008986771
 148       -0.200468462
 149       -0.040330889
 150       -0.071118875
 151        0.034275854
 152       -0.028143371
 153        0.000000000
 154        0.031395428
 155       -0.025776311
 156        0.000000000
 157        0.005274534
 158       -0.004219201
 159        0.000000000
 160        0.006684021
 161        0.000000000
 162        0.000000000
 163       -0.000836666
 164        0.004914190
 165        0.007076849
 166        0.000000000
 167        0.000000000
 168        0.006978764
 169        0.002133022
 170        0.000000000
 171       -0.000377786
 172        0.000300439
 173        0.000000000
 174        0.000000000
 175       -0.003138089
 176       -0.003268722
 177       -0.026100920
 178       -0.015049440
 179       -0.001549182
 180        0.000172870
 181       -0.002451117
 182        0.000000000
 183        0.002365567
 184        0.003582150
 185        0.000000000
 186        0.000160844
 187        0.000000000
 188        0.000000000
 189       -0.000083975
 190        0.000637361
 191       -0.023657304
 192       -0.020205402
 193       -0.000229633
 194        0.002041789
 195       -0.000084469
 196        0.000000000
 197       -0.002122028
 198        0.001127173
 199        0.000000000
 200       -0.000219754
 201        0.000000000
 202        0.000000000
 203        0.000356762
 204        0.000106035
 Sym= Ag  
 Ene=        -0.818684
 Spin= Alpha
 Occup=       2.000000
   1        0.005829083
   2       -0.257391871
   3       -0.052150440
   4       -0.154405198
   5        0.039674196
   6       -0.020572156
   7        0.000000000
   8        0.046721954
   9       -0.023321140
  10        0.000000000
  11        0.007412976
  12       -0.001687793
  13        0.000000000
  14        0.007236575
  15        0.000000000
  16        0.000000000
  17        0.000548986
  18       -0.001835449
  19        0.012259903
  20        0.000000000
  21        0.000000000
  22        0.005122175
  23       -0.002324512
  24        0.000000000
  25       -0.000424624
  26        0.000108490
  27        0.000000000
  28        0.000000000
  29        0.004757339
  30        0.003222861
  31       -0.059524057
  32       -0.068097442
  33       -0.015432829
  34        0.002172929
  35        0.005061942
  36        0.000000000
  37        0.001671608
  38        0.001346450
  39        0.000000000
  40        0.000358951
  41        0.000000000
  42        0.000000000
  43        0.000363774
  44       -0.000777729
  45       -0.071552417
  46       -0.090848731
  47       -0.017690010
  48       -0.006428099
  49       -0.001909381
  50        0.000000000
  51       -0.004587454
  52       -0.002537142
  53        0.000000000
  54        0.000609685
  55        0.000000000
  56        0.000000000
  57       -0.000924106
  58       -0.000453355
  59       -0.003673364
  60        0.170272522
  61        0.033075069
  62        0.102380566
  63        0.091380421
  64       -0.030207382
  65        0.000000000
  66        0.103505450
  67       -0.030774873
  68        0.000000000
  69        0.016263352
  70       -0.002679533
  71        0.000000000
  72       -0.005180466
  73        0.000000000
  74        0.000000000
  75        0.003878944
  76        0.007542117
  77       -0.009751295
  78        0.000000000
  79        0.000000000
  80        0.010320553
  81        0.003851393
  82        0.000000000
  83       -0.001998679
  84       -0.000084677
  85        0.000000000
  86        0.000000000
  87        0.004028251
  88        0.002587096
  89        0.036972473
  90        0.051141892
  91        0.009073729
  92        0.002432427
  93        0.002822281
  94        0.000000000
  95        0.004473976
  96        0.003681138
  97        0.000000000
  98       -0.000280322
  99        0.000000000
 100        0.000000000
 101        0.000019765
 102        0.001293735
 103       -0.003673364
 104        0.170272522
 105        0.033075069
 106        0.102380566
 107       -0.091380421
 108        0.030207382
 109        0.000000000
 110       -0.103505450
 111        0.030774873
 112        0.000000000
 113       -0.016263352
 114        0.002679533
 115        0.000000000
 116       -0.005180466
 117        0.000000000
 118        0.000000000
 119        0.003878944
 120        0.007542117
 121       -0.009751295
 122        0.000000000
 123        0.000000000
 124        0.010320553
 125        0.003851393
 126        0.000000000
 127        0.001998679
 128        0.000084677
 129        0.000000000
 130        0.000000000
 131       -0.004028251
 132       -0.002587096
 133        0.036972473
 134        0.051141892
 135        0.009073729
 136       -0.002432427
 137       -0.002822281
 138        0.000000000
 139       -0.004473976
 140       -0.003681138
 141        0.000000000
 142       -0.000280322
 143        0.000000000
 144        0.000000000
 145        0.000019765
 146        0.001293735
 147        0.005829083
 148       -0.257391871
 149       -0.052150440
 150       -0.154405198
 151       -0.039674196
 152        0.020572156
 153        0.000000000
 154       -0.046721954
 155        0.023321140
 156        0.000000000
 157       -0.007412976
 158        0.001687793
 159        0.000000000
 160        0.007236575
 161        0.000000000
 162        0.000000000
 163        0.000548986
 164       -0.001835449
 165        0.012259903
 166        0.000000000
 167        0.000000000
 168        0.005122175
 169       -0.002324512
 170        0.000000000
 171        0.000424624
 172       -0.000108490
 173        0.000000000
 174        0.000000000
 175       -0.004757339
 176       -0.003222861
 177       -0.059524057
 178       -0.068097442
 179       -0.015432829
 180       -0.002172929
 181       -0.005061942
 182        0.000000000
 183       -0.001671608
 184       -0.001346450
 185        0.000000000
 186        0.000358951
 187        0.000000000
 188        0.000000000
 189        0.000363774
 190       -0.000777729
 191       -0.071552417
 192       -0.090848731
 193       -0.017690010
 194        0.006428099
 195        0.001909381
 196        0.000000000
 197        0.004587454
 198        0.002537142
 199        0.000000000
 200        0.000609685
 201        0.000000000
 202        0.000000000
 203       -0.000924106
 204       -0.000453355
 Sym= Ag  
 Ene=        -0.626111
 Spin= Alpha
 Occup=       2.000000
   1       -0.001068217
   2        0.014437424
   3        0.002638497
   4        0.001645082
   5        0.047317501
   6        0.130858959
   7        0.000000000
   8        0.056245375
   9        0.157398464
  10        0.000000000
  11        0.020577065
  12        0.066408027
  13        0.000000000
  14        0.000018947
  15        0.000000000
  16        0.000000000
  17       -0.004206721
  18        0.004788627
  19       -0.002232919
  20        0.000000000
  21        0.000000000
  22        0.002778398
  23        0.005602222
  24        0.000000000
  25       -0.000717303
  26       -0.001608673
  27        0.000000000
  28        0.000000000
  29        0.002648941
  30       -0.001244016
  31        0.092893449
  32        0.147417819
  33        0.044135673
  34       -0.001313299
  35       -0.008673921
  36        0.000000000
  37       -0.002709941
  38       -0.011046124
  39        0.000000000
  40       -0.001233884
  41        0.000000000
  42        0.000000000
  43       -0.002419576
  44        0.000600520
  45       -0.044684728
  46       -0.076767460
  47       -0.021976245
  48       -0.004427993
  49        0.001669312
  50        0.000000000
  51       -0.008686463
  52        0.002382994
  53        0.000000000
  54        0.000869836
  55        0.000000000
  56        0.000000000
  57       -0.001744578
  58        0.001033364
  59        0.000474713
  60       -0.019494523
  61       -0.005235377
  62       -0.003550917
  63        0.124152650
  64        0.051100138
  65        0.000000000
  66        0.153787493
  67        0.066672718
  68        0.000000000
  69        0.037832021
  70        0.043820842
  71        0.000000000
  72        0.000181833
  73        0.000000000
  74        0.000000000
  75        0.004845947
  76        0.002562209
  77       -0.000370517
  78        0.000000000
  79        0.000000000
  80        0.013330988
  81       -0.005260716
  82        0.000000000
  83       -0.003485430
  84       -0.000682270
  85        0.000000000
  86        0.000000000
  87        0.003976017
  88       -0.003285039
  89       -0.056530945
  90       -0.074403467
  91       -0.021808285
  92        0.001212605
  93       -0.005825908
  94        0.000000000
  95        0.006172750
  96       -0.003041293
  97        0.000000000
  98        0.000628042
  99        0.000000000
 100        0.000000000
 101        0.002198346
 102        0.001398535
 103        0.000474713
 104       -0.019494523
 105       -0.005235377
 106       -0.003550917
 107       -0.124152650
 108       -0.051100138
 109        0.000000000
 110       -0.153787493
 111       -0.066672718
 112        0.000000000
 113       -0.037832021
 114       -0.043820842
 115        0.000000000
 116        0.000181833
 117        0.000000000
 118        0.000000000