[Molden Format]
[N_ATOMS]
           10
[Atoms]  AU
C     1    6      -3.153812        1.523264        0.000000
H     2    1      -2.669104        3.534007        0.000000
H     3    1      -5.159592        1.037028        0.000000
C     4    6      -1.352024       -0.263651        0.000000
H     5    1      -1.897611       -2.263346        0.000000
C     6    6       1.352024        0.263651        0.000000
H     7    1       1.897611        2.263346        0.000000
C     8    6       3.153812       -1.523264        0.000000
H     9    1       2.669104       -3.534007        0.000000
H    10    1       5.159592       -1.037028        0.000000
[5D7F9G]
[GTO]
    1
    s    8
   0.823600000E+04   0.542430189E-03
   0.123500000E+04   0.419642790E-02
   0.280800000E+03   0.215409141E-01
   0.792700000E+02   0.836149496E-01
   0.255900000E+02   0.239871619E+00
   0.899700000E+01   0.443751820E+00
   0.331900000E+01   0.353579696E+00
   0.364300000E+00  -0.917636608E-02
    s    8
   0.823600000E+04  -0.196392234E-03
   0.123500000E+04  -0.152595027E-02
   0.280800000E+03  -0.789044903E-02
   0.792700000E+02  -0.315148705E-01
   0.255900000E+02  -0.969100083E-01
   0.899700000E+01  -0.220541526E+00
   0.331900000E+01  -0.296069113E+00
   0.364300000E+00   0.104050343E+01
    s    1
   0.905900000E+00   0.100000000E+01
    s    1
   0.128500000E+00   0.100000000E+01
    p    3
   0.187100000E+02   0.394263872E-01
   0.413300000E+01   0.244088985E+00
   0.120000000E+01   0.815492009E+00
    p    1
   0.382700000E+00   0.100000000E+01
    p    1
   0.120900000E+00   0.100000000E+01
    d    1
   0.109700000E+01   0.100000000E+01
    d    1
   0.318000000E+00   0.100000000E+01
    f    1
   0.761000000E+00   0.100000000E+01
 
    2
    s    3
   0.338700000E+02   0.254948632E-01
   0.509500000E+01   0.190362766E+00
   0.115900000E+01   0.852162022E+00
    s    1
   0.325800000E+00   0.100000000E+01
    s    1
   0.102700000E+00   0.100000000E+01
    p    1
   0.140700000E+01   0.100000000E+01
    p    1
   0.388000000E+00   0.100000000E+01
    d    1
   0.105700000E+01   0.100000000E+01
 
    3
    s    3
   0.338700000E+02   0.254948632E-01
   0.509500000E+01   0.190362766E+00
   0.115900000E+01   0.852162022E+00
    s    1
   0.325800000E+00   0.100000000E+01
    s    1
   0.102700000E+00   0.100000000E+01
    p    1
   0.140700000E+01   0.100000000E+01
    p    1
   0.388000000E+00   0.100000000E+01
    d    1
   0.105700000E+01   0.100000000E+01
 
    4
    s    8
   0.823600000E+04   0.542430189E-03
   0.123500000E+04   0.419642790E-02
   0.280800000E+03   0.215409141E-01
   0.792700000E+02   0.836149496E-01
   0.255900000E+02   0.239871619E+00
   0.899700000E+01   0.443751820E+00
   0.331900000E+01   0.353579696E+00
   0.364300000E+00  -0.917636608E-02
    s    8
   0.823600000E+04  -0.196392234E-03
   0.123500000E+04  -0.152595027E-02
   0.280800000E+03  -0.789044903E-02
   0.792700000E+02  -0.315148705E-01
   0.255900000E+02  -0.969100083E-01
   0.899700000E+01  -0.220541526E+00
   0.331900000E+01  -0.296069113E+00
   0.364300000E+00   0.104050343E+01
    s    1
   0.905900000E+00   0.100000000E+01
    s    1
   0.128500000E+00   0.100000000E+01
    p    3
   0.187100000E+02   0.394263872E-01
   0.413300000E+01   0.244088985E+00
   0.120000000E+01   0.815492009E+00
    p    1
   0.382700000E+00   0.100000000E+01
    p    1
   0.120900000E+00   0.100000000E+01
    d    1
   0.109700000E+01   0.100000000E+01
    d    1
   0.318000000E+00   0.100000000E+01
    f    1
   0.761000000E+00   0.100000000E+01
 
    5
    s    3
   0.338700000E+02   0.254948632E-01
   0.509500000E+01   0.190362766E+00
   0.115900000E+01   0.852162022E+00
    s    1
   0.325800000E+00   0.100000000E+01
    s    1
   0.102700000E+00   0.100000000E+01
    p    1
   0.140700000E+01   0.100000000E+01
    p    1
   0.388000000E+00   0.100000000E+01
    d    1
   0.105700000E+01   0.100000000E+01
 
    6
    s    8
   0.823600000E+04   0.542430189E-03
   0.123500000E+04   0.419642790E-02
   0.280800000E+03   0.215409141E-01
   0.792700000E+02   0.836149496E-01
   0.255900000E+02   0.239871619E+00
   0.899700000E+01   0.443751820E+00
   0.331900000E+01   0.353579696E+00
   0.364300000E+00  -0.917636608E-02
    s    8
   0.823600000E+04  -0.196392234E-03
   0.123500000E+04  -0.152595027E-02
   0.280800000E+03  -0.789044903E-02
   0.792700000E+02  -0.315148705E-01
   0.255900000E+02  -0.969100083E-01
   0.899700000E+01  -0.220541526E+00
   0.331900000E+01  -0.296069113E+00
   0.364300000E+00   0.104050343E+01
    s    1
   0.905900000E+00   0.100000000E+01
    s    1
   0.128500000E+00   0.100000000E+01
    p    3
   0.187100000E+02   0.394263872E-01
   0.413300000E+01   0.244088985E+00
   0.120000000E+01   0.815492009E+00
    p    1
   0.382700000E+00   0.100000000E+01
    p    1
   0.120900000E+00   0.100000000E+01
    d    1
   0.109700000E+01   0.100000000E+01
    d    1
   0.318000000E+00   0.100000000E+01
    f    1
   0.761000000E+00   0.100000000E+01
 
    7
    s    3
   0.338700000E+02   0.254948632E-01
   0.509500000E+01   0.190362766E+00
   0.115900000E+01   0.852162022E+00
    s    1
   0.325800000E+00   0.100000000E+01
    s    1
   0.102700000E+00   0.100000000E+01
    p    1
   0.140700000E+01   0.100000000E+01
    p    1
   0.388000000E+00   0.100000000E+01
    d    1
   0.105700000E+01   0.100000000E+01
 
    8
    s    8
   0.823600000E+04   0.542430189E-03
   0.123500000E+04   0.419642790E-02
   0.280800000E+03   0.215409141E-01
   0.792700000E+02   0.836149496E-01
   0.255900000E+02   0.239871619E+00
   0.899700000E+01   0.443751820E+00
   0.331900000E+01   0.353579696E+00
   0.364300000E+00  -0.917636608E-02
    s    8
   0.823600000E+04  -0.196392234E-03
   0.123500000E+04  -0.152595027E-02
   0.280800000E+03  -0.789044903E-02
   0.792700000E+02  -0.315148705E-01
   0.255900000E+02  -0.969100083E-01
   0.899700000E+01  -0.220541526E+00
   0.331900000E+01  -0.296069113E+00
   0.364300000E+00   0.104050343E+01
    s    1
   0.905900000E+00   0.100000000E+01
    s    1
   0.128500000E+00   0.100000000E+01
    p    3
   0.187100000E+02   0.394263872E-01
   0.413300000E+01   0.244088985E+00
   0.120000000E+01   0.815492009E+00
    p    1
   0.382700000E+00   0.100000000E+01
    p    1
   0.120900000E+00   0.100000000E+01
    d    1
   0.109700000E+01   0.100000000E+01
    d    1
   0.318000000E+00   0.100000000E+01
    f    1
   0.761000000E+00   0.100000000E+01
 
    9
    s    3
   0.338700000E+02   0.254948632E-01
   0.509500000E+01   0.190362766E+00
   0.115900000E+01   0.852162022E+00
    s    1
   0.325800000E+00   0.100000000E+01
    s    1
   0.102700000E+00   0.100000000E+01
    p    1
   0.140700000E+01   0.100000000E+01
    p    1
   0.388000000E+00   0.100000000E+01
    d    1
   0.105700000E+01   0.100000000E+01
 
   10
    s    3
   0.338700000E+02   0.254948632E-01
   0.509500000E+01   0.190362766E+00
   0.115900000E+01   0.852162022E+00
    s    1
   0.325800000E+00   0.100000000E+01
    s    1
   0.102700000E+00   0.100000000E+01
    p    1
   0.140700000E+01   0.100000000E+01
    p    1
   0.388000000E+00   0.100000000E+01
    d    1
   0.105700000E+01   0.100000000E+01
 
[MO]
 Sym= Ag  
 Ene=       -11.527832
 Spin= Alpha
 Occup=       2.000000
   1        0.581977142
   2        0.000454019
   3        0.024086336
   4        0.000337179
   5        0.000607779
   6       -0.000578667
   7        0.000000000
   8        0.000131366
   9       -0.000624930
  10        0.000000000
  11       -0.000305250
  12        0.000223391
  13        0.000000000
  14       -0.000414402
  15        0.000000000
  16        0.000000000
  17        0.000008852
  18       -0.000163203
  19        0.000224546
  20        0.000000000
  21        0.000000000
  22       -0.000088080
  23        0.000120956
  24        0.000000000
  25        0.000073166
  26       -0.000070037
  27        0.000000000
  28        0.000000000
  29       -0.000173503
  30       -0.000144481
  31        0.000042869
  32        0.000898196
  33       -0.000209978
  34        0.000030738
  35        0.000165111
  36        0.000000000
  37       -0.000117752
  38       -0.000359645
  39        0.000000000
  40       -0.000007635
  41        0.000000000
  42        0.000000000
  43        0.000055699
  44       -0.000019382
  45        0.000062343
  46        0.000763916
  47       -0.000245562
  48       -0.000182920
  49       -0.000041554
  50        0.000000000
  51        0.000225766
  52        0.000129386
  53        0.000000000
  54        0.000004943
  55        0.000000000
  56        0.000000000
  57       -0.000077623
  58       -0.000031077
  59        0.373739254
  60        0.000587036
  61        0.015696211
  62        0.002133817
  63       -0.000191480
  64        0.000509992
  65        0.000000000
  66       -0.000017349
  67        0.000451097
  68        0.000000000
  69       -0.000533871
  70        0.001203479
  71        0.000000000
  72       -0.000167502
  73        0.000000000
  74        0.000000000
  75        0.000066597
  76       -0.000093553
  77       -0.000072857
  78        0.000000000
  79        0.000000000
  80       -0.000418347
  81        0.001020672
  82        0.000000000
  83       -0.000007962
  84        0.000072421
  85        0.000000000
  86        0.000000000
  87       -0.000093236
  88       -0.000067294
  89       -0.000010395
  90       -0.000064033
  91        0.000101712
  92       -0.000019962
  93       -0.000067550
  94        0.000000000
  95        0.000264627
  96       -0.000063149
  97        0.000000000
  98       -0.000009442
  99        0.000000000
 100        0.000000000
 101        0.000020694
 102        0.000038671
 103        0.373739254
 104        0.000587036
 105        0.015696211
 106        0.002133817
 107        0.000191480
 108       -0.000509992
 109        0.000000000
 110        0.000017349
 111       -0.000451097
 112        0.000000000
 113        0.000533871
 114       -0.001203479
 115        0.000000000
 116       -0.000167502
 117        0.000000000
 118        0.000000000
 119        0.000066597
 120       -0.000093553
 121       -0.000072857
 122        0.000000000
 123        0.000000000
 124       -0.000418347
 125        0.001020672
 126        0.000000000
 127        0.000007962
 128       -0.000072421
 129        0.000000000
 130        0.000000000
 131        0.000093236
 132        0.000067294
 133       -0.000010395
 134       -0.000064033
 135        0.000101712
 136        0.000019962
 137        0.000067550
 138        0.000000000
 139       -0.000264627
 140        0.000063149
 141        0.000000000
 142       -0.000009442
 143        0.000000000
 144        0.000000000
 145        0.000020694
 146        0.000038671
 147        0.581977142
 148        0.000454019
 149        0.024086336
 150        0.000337179
 151       -0.000607779
 152        0.000578667
 153        0.000000000
 154       -0.000131366
 155        0.000624930
 156        0.000000000
 157        0.000305250
 158       -0.000223391
 159        0.000000000
 160       -0.000414402
 161        0.000000000
 162        0.000000000
 163        0.000008852
 164       -0.000163203
 165        0.000224546
 166        0.000000000
 167        0.000000000
 168       -0.000088080
 169        0.000120956
 170        0.000000000
 171       -0.000073166
 172        0.000070037
 173        0.000000000
 174        0.000000000
 175        0.000173503
 176        0.000144481
 177        0.000042869
 178        0.000898196
 179       -0.000209978
 180       -0.000030738
 181       -0.000165111
 182        0.000000000
 183        0.000117752
 184        0.000359645
 185        0.000000000
 186       -0.000007635
 187        0.000000000
 188        0.000000000
 189        0.000055699
 190       -0.000019382
 191        0.000062343
 192        0.000763916
 193       -0.000245562
 194        0.000182920
 195        0.000041554
 196        0.000000000
 197       -0.000225766
 198       -0.000129386
 199        0.000000000
 200        0.000004943
 201        0.000000000
 202        0.000000000
 203       -0.000077623
 204       -0.000031077
 Sym= Ag  
 Ene=       -11.524768
 Spin= Alpha
 Occup=       2.000000
   1       -0.374050825
   2        0.000093221
   3       -0.015180226
   4       -0.001523914
   5       -0.000123667
   6        0.000095455
   7        0.000000000
   8       -0.000465292
   9        0.000076035
  10        0.000000000
  11       -0.000508204
  12        0.000048104
  13        0.000000000
  14        0.000411185
  15        0.000000000
  16        0.000000000
  17        0.000003341
  18        0.000195352
  19       -0.000260178
  20        0.000000000
  21        0.000000000
  22        0.000152015
  23        0.000600387
  24        0.000000000
  25        0.000067406
  26       -0.000057150
  27        0.000000000
  28        0.000000000
  29        0.000292347
  30        0.000323965
  31       -0.000075147
  32       -0.000634789
  33        0.000063097
  34       -0.000046648
  35       -0.000132601
  36        0.000000000
  37       -0.000101058
  38        0.000237538
  39        0.000000000
  40        0.000009438
  41        0.000000000
  42        0.000000000
  43       -0.000065812
  44        0.000082718
  45       -0.000019977
  46       -0.001127598
  47       -0.000147837
  48        0.000123985
  49        0.000036936
  50        0.000000000
  51       -0.000442244
  52        0.000021055
  53        0.000000000
  54        0.000010882
  55        0.000000000
  56        0.000000000
  57        0.000047036
  58        0.000051431
  59        0.582029973
  60        0.000470649
  61        0.024026806
  62        0.002058362
  63        0.000043752
  64        0.000395204
  65        0.000000000
  66        0.000471261
  67        0.000609488
  68        0.000000000
  69       -0.000041035
  70        0.000644401
  71        0.000000000
  72       -0.000501433
  73        0.000000000
  74        0.000000000
  75        0.000022246
  76       -0.000257327
  77        0.000251169
  78        0.000000000
  79        0.000000000
  80        0.000175902
  81       -0.000942183
  82        0.000000000
  83        0.000112919
  84       -0.000040772
  85        0.000000000
  86        0.000000000
  87        0.000146922
  88        0.000217299
  89        0.000085177
  90        0.001690271
  91        0.000052269
  92       -0.000083500
  93       -0.000126304
  94        0.000000000
  95       -0.000076446
  96        0.000701086
  97        0.000000000
  98       -0.000013375
  99        0.000000000
 100        0.000000000
 101       -0.000010491
 102       -0.000109475
 103        0.582029973
 104        0.000470649
 105        0.024026806
 106        0.002058362
 107       -0.000043752
 108       -0.000395204
 109        0.000000000
 110       -0.000471261
 111       -0.000609488
 112        0.000000000
 113        0.000041035
 114       -0.000644401
 115        0.000000000
 116       -0.000501433
 117        0.000000000
 118        0.000000000
 119        0.000022246
 120       -0.000257327
 121        0.000251169
 122        0.000000000
 123        0.000000000
 124        0.000175902
 125       -0.000942183
 126        0.000000000
 127       -0.000112919
 128        0.000040772
 129        0.000000000
 130        0.000000000
 131       -0.000146922
 132       -0.000217299
 133        0.000085177
 134        0.001690271
 135        0.000052269
 136        0.000083500
 137        0.000126304
 138        0.000000000
 139        0.000076446
 140       -0.000701086
 141        0.000000000
 142       -0.000013375
 143        0.000000000
 144        0.000000000
 145       -0.000010491
 146       -0.000109475
 147       -0.374050825
 148        0.000093221
 149       -0.015180226
 150       -0.001523914
 151        0.000123667
 152       -0.000095455
 153        0.000000000
 154        0.000465292
 155       -0.000076035
 156        0.000000000
 157        0.000508204
 158       -0.000048104
 159        0.000000000
 160        0.000411185
 161        0.000000000
 162        0.000000000
 163        0.000003341
 164        0.000195352
 165       -0.000260178
 166        0.000000000
 167        0.000000000
 168        0.000152015
 169        0.000600387
 170        0.000000000
 171       -0.000067406
 172        0.000057150
 173        0.000000000
 174        0.000000000
 175       -0.000292347
 176       -0.000323965
 177       -0.000075147
 178       -0.000634789
 179        0.000063097
 180        0.000046648
 181        0.000132601
 182        0.000000000
 183        0.000101058
 184       -0.000237538
 185        0.000000000
 186        0.000009438
 187        0.000000000
 188        0.000000000
 189       -0.000065812
 190        0.000082718
 191       -0.000019977
 192       -0.001127598
 193       -0.000147837
 194       -0.000123985
 195       -0.000036936
 196        0.000000000
 197        0.000442244
 198       -0.000021055
 199        0.000000000
 200        0.000010882
 201        0.000000000
 202        0.000000000
 203        0.000047036
 204        0.000051431
 Sym= Ag  
 Ene=        -1.332559
 Spin= Alpha
 Occup=       2.000000
   1        0.010224820
   2       -0.204299382
   3       -0.049457923
   4       -0.096862110
   5       -0.035221201
   6        0.029823081
   7        0.000000000
   8       -0.029253842
   9        0.024851819
  10        0.000000000
  11       -0.015305778
  12        0.013011070
  13        0.000000000
  14        0.006170163
  15        0.000000000
  16        0.000000000
  17       -0.001239472
  18        0.004655618
  19        0.010189241
  20        0.000000000
  21        0.000000000
  22        0.008629663
  23       -0.001372806
  24        0.000000000
  25        0.000906052
  26       -0.000885788
  27        0.000000000
  28        0.000000000
  29        0.003001753
  30        0.003132677
  31       -0.016998978
  32        0.008364864
  33       -0.000350316
  34       -0.000430064
  35        0.001758170
  36        0.000000000
  37       -0.004079088
  38       -0.008563919
  39        0.000000000
  40       -0.000015409
  41        0.000000000
  42        0.000000000
  43       -0.000418789
  44        0.000980484
  45       -0.016117159
  46       -0.001135400
  47       -0.001007337
  48       -0.001391483
  49        0.000261336
  50        0.000000000
  51        0.006422826
  52       -0.000376428
  53        0.000000000
  54       -0.000459000
  55        0.000000000
  56        0.000000000
  57        0.000728512
  58        0.000277032
  59        0.015511300
  60       -0.317717385
  61       -0.076917731
  62       -0.073633719
  63       -0.007329818
  64       -0.030983011
  65        0.000000000
  66       -0.009366513
  67       -0.023142562
  68        0.000000000
  69       -0.013601247
  70        0.018795447
  71        0.000000000
  72        0.009594678
  73        0.000000000
  74        0.000000000
  75       -0.003322751
  76        0.003814344
  77        0.011051282
  78        0.000000000
  79        0.000000000
  80        0.014443707
  81       -0.005311837
  82        0.000000000
  83       -0.000139064
  84        0.000745598
  85        0.000000000
  86        0.000000000
  87       -0.005365673
  88       -0.003901427
  89       -0.026230408
  90        0.012400640
  91        0.006117381
  92       -0.000911112
  93       -0.002182692
  94        0.000000000
  95        0.004327592
  96        0.012669501
  97        0.000000000
  98        0.000154166
  99        0.000000000
 100        0.000000000
 101       -0.001335308
 102        0.000624616
 103        0.015511300
 104       -0.317717385
 105       -0.076917731
 106       -0.073633719
 107        0.007329818
 108        0.030983011
 109        0.000000000
 110        0.009366513
 111        0.023142562
 112        0.000000000
 113        0.013601247
 114       -0.018795447
 115        0.000000000
 116        0.009594678
 117        0.000000000
 118        0.000000000
 119       -0.003322751
 120        0.003814344
 121        0.011051282
 122        0.000000000
 123        0.000000000
 124        0.014443707
 125       -0.005311837
 126        0.000000000
 127        0.000139064
 128       -0.000745598
 129        0.000000000
 130        0.000000000
 131        0.005365673
 132        0.003901427
 133       -0.026230408
 134        0.012400640
 135        0.006117381
 136        0.000911112
 137        0.002182692
 138        0.000000000
 139       -0.004327592
 140       -0.012669501
 141        0.000000000
 142        0.000154166
 143        0.000000000
 144        0.000000000
 145       -0.001335308
 146        0.000624616
 147        0.010224820
 148       -0.204299382
 149       -0.049457923
 150       -0.096862110
 151        0.035221201
 152       -0.029823081
 153        0.000000000
 154        0.029253842
 155       -0.024851819
 156        0.000000000
 157        0.015305778
 158       -0.013011070
 159        0.000000000
 160        0.006170163
 161        0.000000000
 162        0.000000000
 163       -0.001239472
 164        0.004655618
 165        0.010189241
 166        0.000000000
 167        0.000000000
 168        0.008629663
 169       -0.001372806
 170        0.000000000
 171       -0.000906052
 172        0.000885788
 173        0.000000000
 174        0.000000000
 175       -0.003001753
 176       -0.003132677
 177       -0.016998978
 178        0.008364864
 179       -0.000350316
 180        0.000430064
 181       -0.001758170
 182        0.000000000
 183        0.004079088
 184        0.008563919
 185        0.000000000
 186       -0.000015409
 187        0.000000000
 188        0.000000000
 189       -0.000418789
 190        0.000980484
 191       -0.016117159
 192       -0.001135400
 193       -0.001007337
 194        0.001391483
 195       -0.000261336
 196        0.000000000
 197       -0.006422826
 198        0.000376428
 199        0.000000000
 200       -0.000459000
 201        0.000000000
 202        0.000000000
 203        0.000728512
 204        0.000277032
 Sym= Ag  
 Ene=        -0.977114
 Spin= Alpha
 Occup=       2.000000
   1       -0.002683684
   2        0.303073789
   3        0.077768147
   4        0.152019733
   5       -0.027706177
   6        0.007581798
   7        0.000000000
   8       -0.030959091
   9        0.005947685
  10        0.000000000
  11       -0.009496003
  12       -0.001892859
  13        0.000000000
  14       -0.005293288
  15        0.000000000
  16        0.000000000
  17       -0.001456229
  18        0.000571244
  19       -0.009381289
  20        0.000000000
  21        0.000000000
  22       -0.006552692
  23       -0.000291955
  24        0.000000000
  25        0.000297804
  26        0.000213264
  27        0.000000000
  28        0.000000000
  29       -0.004128805
  30       -0.002208500
  31        0.047114878
  32        0.042647630
  33        0.014014645
  34       -0.001939110
  35       -0.004860004
  36        0.000000000
  37       -0.000674409
  38        0.000842937
  39        0.000000000
  40       -0.000289622
  41        0.000000000
  42        0.000000000
  43       -0.000444668
  44        0.000768735
  45        0.057396995
  46        0.060380344
  47        0.014453916
  48        0.006117534
  49        0.001538622
  50        0.000000000
  51        0.002232891
  52        0.000504908
  53        0.000000000
  54       -0.000621362
  55        0.000000000
  56        0.000000000
  57        0.001065857
  58        0.000223991
  59        0.001286198
  60       -0.188029655
  61       -0.047048036
  62       -0.099230988
  63       -0.095536076
  64        0.027940875
  65        0.000000000
  66       -0.104179798
  67        0.025208933
  68        0.000000000
  69       -0.026016765
  70        0.005032519
  71        0.000000000
  72        0.003076751
  73        0.000000000
  74        0.000000000
  75       -0.003030579
  76       -0.007892306
  77        0.006282262
  78        0.000000000
  79        0.000000000
  80       -0.007906866
  81       -0.004285343
  82        0.000000000
  83        0.003404081
  84       -0.000314791
  85        0.000000000
  86        0.000000000
  87       -0.003433688
  88       -0.001260173
  89       -0.029095334
  90       -0.033370835
  91       -0.007500832
  92       -0.002528471
  93       -0.002657762
  94        0.000000000
  95       -0.004801614
  96       -0.001751753
  97        0.000000000
  98        0.000251907
  99        0.000000000
 100        0.000000000
 101       -0.000194782
 102       -0.001642515
 103        0.001286198
 104       -0.188029655
 105       -0.047048036
 106       -0.099230988
 107        0.095536076
 108       -0.027940875
 109        0.000000000
 110        0.104179798
 111       -0.025208933
 112        0.000000000
 113        0.026016765
 114       -0.005032519
 115        0.000000000
 116        0.003076751
 117        0.000000000
 118        0.000000000
 119       -0.003030579
 120       -0.007892306
 121        0.006282262
 122        0.000000000
 123        0.000000000
 124       -0.007906866
 125       -0.004285343
 126        0.000000000
 127       -0.003404081
 128        0.000314791
 129        0.000000000
 130        0.000000000
 131        0.003433688
 132        0.001260173
 133       -0.029095334
 134       -0.033370835
 135       -0.007500832
 136        0.002528471
 137        0.002657762
 138        0.000000000
 139        0.004801614
 140        0.001751753
 141        0.000000000
 142        0.000251907
 143        0.000000000
 144        0.000000000
 145       -0.000194782
 146       -0.001642515
 147       -0.002683684
 148        0.303073789
 149        0.077768147
 150        0.152019733
 151        0.027706177
 152       -0.007581798
 153        0.000000000
 154        0.030959091
 155       -0.005947685
 156        0.000000000
 157        0.009496003
 158        0.001892859
 159        0.000000000
 160       -0.005293288
 161        0.000000000
 162        0.000000000
 163       -0.001456229
 164        0.000571244
 165       -0.009381289
 166        0.000000000
 167        0.000000000
 168       -0.006552692
 169       -0.000291955
 170        0.000000000
 171       -0.000297804
 172       -0.000213264
 173        0.000000000
 174        0.000000000
 175        0.004128805
 176        0.002208500
 177        0.047114878
 178        0.042647630
 179        0.014014645
 180        0.001939110
 181        0.004860004
 182        0.000000000
 183        0.000674409
 184       -0.000842937
 185        0.000000000
 186       -0.000289622
 187        0.000000000
 188        0.000000000
 189       -0.000444668
 190        0.000768735
 191        0.057396995
 192        0.060380344
 193        0.014453916
 194       -0.006117534
 195       -0.001538622
 196        0.000000000
 197       -0.002232891
 198       -0.000504908
 199        0.000000000
 200       -0.000621362
 201        0.000000000
 202        0.000000000
 203        0.001065857
 204        0.000223991
 Sym= Ag  
 Ene=        -0.755908
 Spin= Alpha
 Occup=       2.000000
   1       -0.000447215
   2        0.036287208
   3        0.009885026
   4        0.033950103
   5        0.033097057
   6        0.138512183
   7        0.000000000
   8        0.042278330
   9        0.167209627
  10        0.000000000
  11        0.021668008
  12        0.074370287
  13        0.000000000
  14        0.000774264
  15        0.000000000
  16        0.000000000
  17        0.001848075
  18        0.005273194
  19       -0.000956817
  20        0.000000000
  21        0.000000000
  22        0.010873932
  23        0.007336228
  24        0.000000000
  25       -0.000489351
  26       -0.002730134
  27        0.000000000
  28        0.000000000
  29        0.004156403
  30       -0.001120375
  31        0.086861536
  32        0.123837723
  33        0.044268677
  34       -0.001496403
  35       -0.008909938
  36        0.000000000
  37       -0.001899729
  38       -0.007999627
  39        0.000000000
  40       -0.001489255
  41        0.000000000
  42        0.000000000
  43       -0.002731219
  44        0.000674849
  45       -0.026880445
  46       -0.046050990
  47       -0.013675665
  48       -0.002873589
  49        0.002387164
  50        0.000000000
  51       -0.006555774
  52        0.005561371
  53        0.000000000
  54        0.000789639
  55        0.000000000
  56        0.000000000
  57       -0.001690627
  58        0.001811801
  59        0.000095067
  60       -0.038574267
  61       -0.011289964
  62       -0.026177755
  63        0.133693576
  64        0.047236222
  65        0.000000000
  66        0.162678946
  67        0.064703578
  68        0.000000000
  69        0.061978952
  70        0.030870481
  71        0.000000000
  72        0.000367410
  73        0.000000000
  74        0.000000000
  75       -0.000230145
  76        0.002610814
  77        0.000003121
  78        0.000000000
  79        0.000000000
  80        0.003658300
  81       -0.004500877
  82        0.000000000
  83       -0.005013284
  84       -0.000676905
  85        0.000000000
  86        0.000000000
  87        0.004559432
  88       -0.004212753
  89       -0.049296087
  90       -0.056859676
  91       -0.021378889
  92        0.001710764
  93       -0.005830495
  94        0.000000000
  95        0.009162521
  96       -0.002172909
  97        0.000000000
  98        0.000650737
  99        0.000000000
 100        0.000000000
 101        0.002716215
 102        0.001915352
 103        0.000095067
 104       -0.038574267
 105       -0.011289964
 106       -0.026177755
 107       -0.133693576
 108       -0.047236222
 109        0.000000000
 110       -0.162678946
 111       -0.064703578
 112        0.000000000
 113       -0.061978952
 114       -0.030870481
 115        0.000000000
 116        0.000367410
 117        0.000000000
 118        0.000000000