[Molden Format]
[N_ATOMS]
           10
[Atoms]  AU
C     1    6      -3.153812        1.523264        0.000000
H     2    1      -2.669104        3.534007        0.000000
H     3    1      -5.159592        1.037028        0.000000
C     4    6      -1.352024       -0.263651        0.000000
H     5    1      -1.897611       -2.263346        0.000000
C     6    6       1.352024        0.263651        0.000000
H     7    1       1.897611        2.263346        0.000000
C     8    6       3.153812       -1.523264        0.000000
H     9    1       2.669104       -3.534007        0.000000
H    10    1       5.159592       -1.037028        0.000000
[5D7F9G]
[GTO]
    1
    s    8
   0.823600000E+04   0.542430189E-03
   0.123500000E+04   0.419642790E-02
   0.280800000E+03   0.215409141E-01
   0.792700000E+02   0.836149496E-01
   0.255900000E+02   0.239871619E+00
   0.899700000E+01   0.443751820E+00
   0.331900000E+01   0.353579696E+00
   0.364300000E+00  -0.917636608E-02
    s    8
   0.823600000E+04  -0.196392234E-03
   0.123500000E+04  -0.152595027E-02
   0.280800000E+03  -0.789044903E-02
   0.792700000E+02  -0.315148705E-01
   0.255900000E+02  -0.969100083E-01
   0.899700000E+01  -0.220541526E+00
   0.331900000E+01  -0.296069113E+00
   0.364300000E+00   0.104050343E+01
    s    1
   0.905900000E+00   0.100000000E+01
    s    1
   0.128500000E+00   0.100000000E+01
    p    3
   0.187100000E+02   0.394263872E-01
   0.413300000E+01   0.244088985E+00
   0.120000000E+01   0.815492009E+00
    p    1
   0.382700000E+00   0.100000000E+01
    p    1
   0.120900000E+00   0.100000000E+01
    d    1
   0.109700000E+01   0.100000000E+01
    d    1
   0.318000000E+00   0.100000000E+01
    f    1
   0.761000000E+00   0.100000000E+01
 
    2
    s    3
   0.338700000E+02   0.254948632E-01
   0.509500000E+01   0.190362766E+00
   0.115900000E+01   0.852162022E+00
    s    1
   0.325800000E+00   0.100000000E+01
    s    1
   0.102700000E+00   0.100000000E+01
    p    1
   0.140700000E+01   0.100000000E+01
    p    1
   0.388000000E+00   0.100000000E+01
    d    1
   0.105700000E+01   0.100000000E+01
 
    3
    s    3
   0.338700000E+02   0.254948632E-01
   0.509500000E+01   0.190362766E+00
   0.115900000E+01   0.852162022E+00
    s    1
   0.325800000E+00   0.100000000E+01
    s    1
   0.102700000E+00   0.100000000E+01
    p    1
   0.140700000E+01   0.100000000E+01
    p    1
   0.388000000E+00   0.100000000E+01
    d    1
   0.105700000E+01   0.100000000E+01
 
    4
    s    8
   0.823600000E+04   0.542430189E-03
   0.123500000E+04   0.419642790E-02
   0.280800000E+03   0.215409141E-01
   0.792700000E+02   0.836149496E-01
   0.255900000E+02   0.239871619E+00
   0.899700000E+01   0.443751820E+00
   0.331900000E+01   0.353579696E+00
   0.364300000E+00  -0.917636608E-02
    s    8
   0.823600000E+04  -0.196392234E-03
   0.123500000E+04  -0.152595027E-02
   0.280800000E+03  -0.789044903E-02
   0.792700000E+02  -0.315148705E-01
   0.255900000E+02  -0.969100083E-01
   0.899700000E+01  -0.220541526E+00
   0.331900000E+01  -0.296069113E+00
   0.364300000E+00   0.104050343E+01
    s    1
   0.905900000E+00   0.100000000E+01
    s    1
   0.128500000E+00   0.100000000E+01
    p    3
   0.187100000E+02   0.394263872E-01
   0.413300000E+01   0.244088985E+00
   0.120000000E+01   0.815492009E+00
    p    1
   0.382700000E+00   0.100000000E+01
    p    1
   0.120900000E+00   0.100000000E+01
    d    1
   0.109700000E+01   0.100000000E+01
    d    1
   0.318000000E+00   0.100000000E+01
    f    1
   0.761000000E+00   0.100000000E+01
 
    5
    s    3
   0.338700000E+02   0.254948632E-01
   0.509500000E+01   0.190362766E+00
   0.115900000E+01   0.852162022E+00
    s    1
   0.325800000E+00   0.100000000E+01
    s    1
   0.102700000E+00   0.100000000E+01
    p    1
   0.140700000E+01   0.100000000E+01
    p    1
   0.388000000E+00   0.100000000E+01
    d    1
   0.105700000E+01   0.100000000E+01
 
    6
    s    8
   0.823600000E+04   0.542430189E-03
   0.123500000E+04   0.419642790E-02
   0.280800000E+03   0.215409141E-01
   0.792700000E+02   0.836149496E-01
   0.255900000E+02   0.239871619E+00
   0.899700000E+01   0.443751820E+00
   0.331900000E+01   0.353579696E+00
   0.364300000E+00  -0.917636608E-02
    s    8
   0.823600000E+04  -0.196392234E-03
   0.123500000E+04  -0.152595027E-02
   0.280800000E+03  -0.789044903E-02
   0.792700000E+02  -0.315148705E-01
   0.255900000E+02  -0.969100083E-01
   0.899700000E+01  -0.220541526E+00
   0.331900000E+01  -0.296069113E+00
   0.364300000E+00   0.104050343E+01
    s    1
   0.905900000E+00   0.100000000E+01
    s    1
   0.128500000E+00   0.100000000E+01
    p    3
   0.187100000E+02   0.394263872E-01
   0.413300000E+01   0.244088985E+00
   0.120000000E+01   0.815492009E+00
    p    1
   0.382700000E+00   0.100000000E+01
    p    1
   0.120900000E+00   0.100000000E+01
    d    1
   0.109700000E+01   0.100000000E+01
    d    1
   0.318000000E+00   0.100000000E+01
    f    1
   0.761000000E+00   0.100000000E+01
 
    7
    s    3
   0.338700000E+02   0.254948632E-01
   0.509500000E+01   0.190362766E+00
   0.115900000E+01   0.852162022E+00
    s    1
   0.325800000E+00   0.100000000E+01
    s    1
   0.102700000E+00   0.100000000E+01
    p    1
   0.140700000E+01   0.100000000E+01
    p    1
   0.388000000E+00   0.100000000E+01
    d    1
   0.105700000E+01   0.100000000E+01
 
    8
    s    8
   0.823600000E+04   0.542430189E-03
   0.123500000E+04   0.419642790E-02
   0.280800000E+03   0.215409141E-01
   0.792700000E+02   0.836149496E-01
   0.255900000E+02   0.239871619E+00
   0.899700000E+01   0.443751820E+00
   0.331900000E+01   0.353579696E+00
   0.364300000E+00  -0.917636608E-02
    s    8
   0.823600000E+04  -0.196392234E-03
   0.123500000E+04  -0.152595027E-02
   0.280800000E+03  -0.789044903E-02
   0.792700000E+02  -0.315148705E-01
   0.255900000E+02  -0.969100083E-01
   0.899700000E+01  -0.220541526E+00
   0.331900000E+01  -0.296069113E+00
   0.364300000E+00   0.104050343E+01
    s    1
   0.905900000E+00   0.100000000E+01
    s    1
   0.128500000E+00   0.100000000E+01
    p    3
   0.187100000E+02   0.394263872E-01
   0.413300000E+01   0.244088985E+00
   0.120000000E+01   0.815492009E+00
    p    1
   0.382700000E+00   0.100000000E+01
    p    1
   0.120900000E+00   0.100000000E+01
    d    1
   0.109700000E+01   0.100000000E+01
    d    1
   0.318000000E+00   0.100000000E+01
    f    1
   0.761000000E+00   0.100000000E+01
 
    9
    s    3
   0.338700000E+02   0.254948632E-01
   0.509500000E+01   0.190362766E+00
   0.115900000E+01   0.852162022E+00
    s    1
   0.325800000E+00   0.100000000E+01
    s    1
   0.102700000E+00   0.100000000E+01
    p    1
   0.140700000E+01   0.100000000E+01
    p    1
   0.388000000E+00   0.100000000E+01
    d    1
   0.105700000E+01   0.100000000E+01
 
   10
    s    3
   0.338700000E+02   0.254948632E-01
   0.509500000E+01   0.190362766E+00
   0.115900000E+01   0.852162022E+00
    s    1
   0.325800000E+00   0.100000000E+01
    s    1
   0.102700000E+00   0.100000000E+01
    p    1
   0.140700000E+01   0.100000000E+01
    p    1
   0.388000000E+00   0.100000000E+01
    d    1
   0.105700000E+01   0.100000000E+01
 
[MO]
 Sym= Ag  
 Ene=       -11.609832
 Spin= Alpha
 Occup=       2.000000
   1       -0.098268090
   2       -0.001120360
   3       -0.004476394
   4        0.000556806
   5       -0.000429198
   6        0.000352525
   7        0.000000000
   8        0.000167680
   9        0.000361659
  10        0.000000000
  11        0.000519603
  12       -0.000171775
  13        0.000000000
  14       -0.000016581
  15        0.000000000
  16        0.000000000
  17       -0.000008722
  18       -0.000026936
  19        0.000091155
  20        0.000000000
  21        0.000000000
  22       -0.000021821
  23       -0.000545729
  24        0.000000000
  25       -0.000095915
  26        0.000087299
  27        0.000000000
  28        0.000000000
  29       -0.000096884
  30       -0.000139989
  31       -0.000080554
  32       -0.000141682
  33        0.000045735
  34        0.000014748
  35        0.000002041
  36        0.000000000
  37        0.000139279
  38        0.000023844
  39        0.000000000
  40       -0.000001756
  41        0.000000000
  42        0.000000000
  43        0.000012135
  44       -0.000046951
  45       -0.000075944
  46        0.000371481
  47        0.000276313
  48        0.000021821
  49       -0.000000493
  50        0.000000000
  51        0.000215041
  52       -0.000104006
  53        0.000000000
  54       -0.000013316
  55        0.000000000
  56        0.000000000
  57        0.000018596
  58       -0.000017809
  59       -0.684562704
  60       -0.002052136
  61       -0.028754556
  62       -0.003270761
  63        0.000046564
  64       -0.000657864
  65        0.000000000
  66       -0.000394018
  67       -0.000728912
  68        0.000000000
  69        0.000325865
  70       -0.001134682
  71        0.000000000
  72        0.000527104
  73        0.000000000
  74        0.000000000
  75       -0.000068276
  76        0.000262015
  77       -0.000094728
  78        0.000000000
  79        0.000000000
  80        0.000203167
  81        0.000014562
  82        0.000000000
  83       -0.000079590
  84       -0.000015940
  85        0.000000000
  86        0.000000000
  87       -0.000070320
  88       -0.000135098
  89       -0.000237316
  90       -0.001295347
  91       -0.000143671
  92        0.000070346
  93        0.000125046
  94        0.000000000
  95       -0.000101684
  96       -0.000440695
  97        0.000000000
  98        0.000017526
  99        0.000000000
 100        0.000000000
 101       -0.000009796
 102        0.000058694
 103       -0.684562704
 104       -0.002052136
 105       -0.028754556
 106       -0.003270761
 107       -0.000046564
 108        0.000657864
 109        0.000000000
 110        0.000394018
 111        0.000728912
 112        0.000000000
 113       -0.000325865
 114        0.001134682
 115        0.000000000
 116        0.000527104
 117        0.000000000
 118        0.000000000
 119       -0.000068276
 120        0.000262015
 121       -0.000094728
 122        0.000000000
 123        0.000000000
 124        0.000203167
 125        0.000014562
 126        0.000000000
 127        0.000079590
 128        0.000015940
 129        0.000000000
 130        0.000000000
 131        0.000070320
 132        0.000135098
 133       -0.000237316
 134       -0.001295347
 135       -0.000143671
 136       -0.000070346
 137       -0.000125046
 138        0.000000000
 139        0.000101684
 140        0.000440695
 141        0.000000000
 142        0.000017526
 143        0.000000000
 144        0.000000000
 145       -0.000009796
 146        0.000058694
 147       -0.098268090
 148       -0.001120360
 149       -0.004476394
 150        0.000556806
 151        0.000429198
 152       -0.000352525
 153        0.000000000
 154       -0.000167680
 155       -0.000361659
 156        0.000000000
 157       -0.000519603
 158        0.000171775
 159        0.000000000
 160       -0.000016581
 161        0.000000000
 162        0.000000000
 163       -0.000008722
 164       -0.000026936
 165        0.000091155
 166        0.000000000
 167        0.000000000
 168       -0.000021821
 169       -0.000545729
 170        0.000000000
 171        0.000095915
 172       -0.000087299
 173        0.000000000
 174        0.000000000
 175        0.000096884
 176        0.000139989
 177       -0.000080554
 178       -0.000141682
 179        0.000045735
 180       -0.000014748
 181       -0.000002041
 182        0.000000000
 183       -0.000139279
 184       -0.000023844
 185        0.000000000
 186       -0.000001756
 187        0.000000000
 188        0.000000000
 189        0.000012135
 190       -0.000046951
 191       -0.000075944
 192        0.000371481
 193        0.000276313
 194       -0.000021821
 195        0.000000493
 196        0.000000000
 197       -0.000215041
 198        0.000104006
 199        0.000000000
 200       -0.000013316
 201        0.000000000
 202        0.000000000
 203        0.000018596
 204       -0.000017809
 Sym= Bu  
 Ene=       -11.606074
 Spin= Alpha
 Occup=       2.000000
   1       -0.098250850
   2       -0.000821084
   3       -0.004479149
   4        0.000343981
   5       -0.000245159
   6        0.000308467
   7        0.000000000
   8       -0.000798859
   9        0.000425904
  10        0.000000000
  11        0.000181752
  12        0.000057340
  13        0.000000000
  14       -0.000034665
  15        0.000000000
  16        0.000000000
  17        0.000017406
  18       -0.000053324
  19       -0.000117567
  20        0.000000000
  21        0.000000000
  22       -0.000353614
  23       -0.000291565
  24        0.000000000
  25       -0.000046289
  26        0.000045764
  27        0.000000000
  28        0.000000000
  29       -0.000239884
  30       -0.000237250
  31       -0.000105826
  32       -0.000615637
  33       -0.000029672
  34        0.000033243
  35        0.000034709
  36        0.000000000
  37        0.000234541
  38        0.000196542
  39        0.000000000
  40        0.000009765
  41        0.000000000
  42        0.000000000
  43        0.000013928
  44       -0.000067447
  45       -0.000119359
  46       -0.000377109
  47       -0.000004090
  48       -0.000055074
  49       -0.000026796
  50        0.000000000
  51       -0.000200154
  52       -0.000112170
  53        0.000000000
  54        0.000020784
  55        0.000000000
  56        0.000000000
  57       -0.000039257
  58       -0.000058694
  59       -0.684822717
  60       -0.000749216
  61       -0.028241481
  62       -0.003580669
  63        0.000707480
  64       -0.000560114
  65        0.000000000
  66       -0.000326917
  67       -0.000499092
  68        0.000000000
  69       -0.000644157
  70       -0.000552681
  71        0.000000000
  72        0.000683779
  73        0.000000000
  74        0.000000000
  75       -0.000087387
  76        0.000232082
  77       -0.000388429
  78        0.000000000
  79        0.000000000
  80       -0.001104666
  81       -0.000405114
  82        0.000000000
  83        0.000083179
  84       -0.000003087
  85        0.000000000
  86        0.000000000
  87       -0.000512635
  88       -0.000389987
  89       -0.000132024
  90       -0.001863933
  91       -0.000121884
  92        0.000029907
  93        0.000226196
  94        0.000000000
  95       -0.000432262
  96       -0.000574145
  97        0.000000000
  98        0.000017691
  99        0.000000000
 100        0.000000000
 101       -0.000131266
 102       -0.000000794
 103        0.684822717
 104        0.000749216
 105        0.028241481
 106        0.003580669
 107        0.000707480
 108       -0.000560114
 109        0.000000000
 110       -0.000326917
 111       -0.000499092
 112        0.000000000
 113       -0.000644157
 114       -0.000552681
 115        0.000000000
 116       -0.000683779
 117        0.000000000
 118        0.000000000
 119        0.000087387
 120       -0.000232082
 121        0.000388429
 122        0.000000000
 123        0.000000000
 124        0.001104666
 125        0.000405114
 126        0.000000000
 127        0.000083179
 128       -0.000003087
 129        0.000000000
 130        0.000000000
 131       -0.000512635
 132       -0.000389987
 133        0.000132024
 134        0.001863933
 135        0.000121884
 136        0.000029907
 137        0.000226196
 138        0.000000000
 139       -0.000432262
 140       -0.000574145
 141        0.000000000
 142       -0.000017691
 143        0.000000000
 144        0.000000000
 145        0.000131266
 146        0.000000794
 147        0.098250850
 148        0.000821084
 149        0.004479149
 150       -0.000343981
 151       -0.000245159
 152        0.000308467
 153        0.000000000
 154       -0.000798859
 155        0.000425904
 156        0.000000000
 157        0.000181752
 158        0.000057340
 159        0.000000000
 160        0.000034665
 161        0.000000000
 162        0.000000000
 163       -0.000017406
 164        0.000053324
 165        0.000117567
 166        0.000000000
 167        0.000000000
 168        0.000353614
 169        0.000291565
 170        0.000000000
 171       -0.000046289
 172        0.000045764
 173        0.000000000
 174        0.000000000
 175       -0.000239884
 176       -0.000237250
 177        0.000105826
 178        0.000615637
 179        0.000029672
 180        0.000033243
 181        0.000034709
 182        0.000000000
 183        0.000234541
 184        0.000196542
 185        0.000000000
 186       -0.000009765
 187        0.000000000
 188        0.000000000
 189       -0.000013928
 190        0.000067447
 191        0.000119359
 192        0.000377109
 193        0.000004090
 194       -0.000055074
 195       -0.000026796
 196        0.000000000
 197       -0.000200154
 198       -0.000112170
 199        0.000000000
 200       -0.000020784
 201        0.000000000
 202        0.000000000
 203        0.000039257
 204        0.000058694
 Sym= Bu  
 Ene=       -11.592139
 Spin= Alpha
 Occup=       2.000000
   1       -0.684820987
   2       -0.001090232
   3       -0.028233667
   4       -0.002869787
   5       -0.000528837
   6        0.000518036
   7        0.000000000
   8       -0.000768337
   9        0.000670722
  10        0.000000000
  11       -0.000306501
  12        0.000474665
  13        0.000000000
  14        0.000641271
  15        0.000000000
  16        0.000000000
  17       -0.000016187
  18        0.000314595
  19       -0.000212851
  20        0.000000000
  21        0.000000000
  22        0.000046574
  23        0.000474651
  24        0.000000000
  25        0.000005342
  26       -0.000015408
  27        0.000000000
  28        0.000000000
  29        0.000393248
  30        0.000376046
  31       -0.000154656
  32       -0.001266867
  33       -0.000050049
  34       -0.000051808
  35       -0.000221755
  36        0.000000000
  37        0.000023790
  38        0.000458537
  39        0.000000000
  40        0.000012690
  41        0.000000000
  42        0.000000000
  43       -0.000094892
  44        0.000065615
  45       -0.000161080
  46       -0.001329941
  47        0.000048315
  48        0.000223437
  49        0.000058338
  50        0.000000000
  51       -0.000490215
  52       -0.000053870
  53        0.000000000
  54        0.000008714
  55        0.000000000
  56        0.000000000
  57        0.000087804
  58        0.000066314
  59        0.098765203
  60       -0.000491310
  61        0.003682803
  62       -0.000120414
  63        0.000284721
  64       -0.000223675
  65        0.000000000
  66       -0.000657554
  67        0.000311756
  68        0.000000000
  69       -0.000917795
  70        0.000125351
  71        0.000000000
  72       -0.000218720
  73        0.000000000
  74        0.000000000
  75        0.000020160
  76       -0.000127825
  77        0.000085904
  78        0.000000000
  79        0.000000000
  80       -0.000191109
  81       -0.000782319
  82        0.000000000
  83        0.000107701
  84       -0.000078453
  85        0.000000000
  86        0.000000000
  87        0.000320646
  88        0.000351813
  89       -0.000059906
  90        0.000359728
  91        0.000005357
  92       -0.000037327
  93       -0.000085873
  94        0.000000000
  95       -0.000135630
  96        0.000158027
  97        0.000000000
  98        0.000005611
  99        0.000000000
 100        0.000000000
 101        0.000025389
 102       -0.000064613
 103       -0.098765203
 104        0.000491310
 105       -0.003682803
 106        0.000120414
 107        0.000284721
 108       -0.000223675
 109        0.000000000
 110       -0.000657554
 111        0.000311756
 112        0.000000000
 113       -0.000917795
 114        0.000125351
 115        0.000000000
 116        0.000218720
 117        0.000000000
 118        0.000000000
 119       -0.000020160
 120        0.000127825
 121       -0.000085904
 122        0.000000000
 123        0.000000000
 124        0.000191109
 125        0.000782319
 126        0.000000000
 127        0.000107701
 128       -0.000078453
 129        0.000000000
 130        0.000000000
 131        0.000320646
 132        0.000351813
 133        0.000059906
 134       -0.000359728
 135       -0.000005357
 136       -0.000037327
 137       -0.000085873
 138        0.000000000
 139       -0.000135630
 140        0.000158027
 141        0.000000000
 142       -0.000005611
 143        0.000000000
 144        0.000000000
 145       -0.000025389
 146        0.000064613
 147        0.684820987
 148        0.001090232
 149        0.028233667
 150        0.002869787
 151       -0.000528837
 152        0.000518036
 153        0.000000000
 154       -0.000768337
 155        0.000670722
 156        0.000000000
 157       -0.000306501
 158        0.000474665
 159        0.000000000
 160       -0.000641271
 161        0.000000000
 162        0.000000000
 163        0.000016187
 164       -0.000314595
 165        0.000212851
 166        0.000000000
 167        0.000000000
 168       -0.000046574
 169       -0.000474651
 170        0.000000000
 171        0.000005342
 172       -0.000015408
 173        0.000000000
 174        0.000000000
 175        0.000393248
 176        0.000376046
 177        0.000154656
 178        0.001266867
 179        0.000050049
 180       -0.000051808
 181       -0.000221755
 182        0.000000000
 183        0.000023790
 184        0.000458537
 185        0.000000000
 186       -0.000012690
 187        0.000000000
 188        0.000000000
 189        0.000094892
 190       -0.000065615
 191        0.000161080
 192        0.001329941
 193       -0.000048315
 194        0.000223437
 195        0.000058338
 196        0.000000000
 197       -0.000490215
 198       -0.000053870
 199        0.000000000
 200       -0.000008714
 201        0.000000000
 202        0.000000000
 203       -0.000087804
 204       -0.000066314
 Sym= Ag  
 Ene=       -11.591854
 Spin= Alpha
 Occup=       2.000000
   1       -0.684770116
   2       -0.000927208
   3       -0.028304039
   4       -0.001574533
   5       -0.000533399
   6        0.000512440
   7        0.000000000
   8       -0.000371390
   9        0.000519937
  10        0.000000000
  11       -0.000099112
  12       -0.000130552
  13        0.000000000
  14        0.000598194
  15        0.000000000
  16        0.000000000
  17       -0.000005369
  18        0.000255449
  19       -0.000311008
  20        0.000000000
  21        0.000000000
  22        0.000186016
  23        0.000293104
  24        0.000000000
  25       -0.000010903
  26        0.000014708
  27        0.000000000
  28        0.000000000
  29        0.000330486
  30        0.000327777
  31       -0.000172218
  32       -0.001141042
  33        0.000171760
  34       -0.000051567
  35       -0.000202774
  36        0.000000000
  37        0.000018469
  38        0.000410420
  39        0.000000000
  40        0.000012360
  41        0.000000000
  42        0.000000000
  43       -0.000085555
  44        0.000069172
  45       -0.000165447
  46       -0.001401904
  47        0.000054580
  48        0.000209358
  49        0.000053420
  50        0.000000000
  51       -0.000449127
  52       -0.000087300
  53        0.000000000
  54        0.000003358
  55        0.000000000
  56        0.000000000
  57        0.000089624
  58        0.000056693
  59        0.098617520
  60       -0.000646871
  61        0.003744910
  62       -0.000350666
  63        0.000196219
  64       -0.000150111
  65        0.000000000
  66        0.000343611
  67        0.000064928
  68        0.000000000
  69        0.000354763
  70       -0.000418709
  71        0.000000000
  72       -0.000184946
  73        0.000000000
  74        0.000000000
  75       -0.000039577
  76       -0.000090751
  77        0.000237889
  78        0.000000000
  79        0.000000000
  80        0.000465905
  81       -0.001404472
  82        0.000000000
  83        0.000078506
  84       -0.000081285
  85        0.000000000
  86        0.000000000
  87        0.000159631
  88        0.000186119
  89       -0.000003727
  90        0.001152241
  91       -0.000054261
  92       -0.000040896
  93       -0.000036892
  94        0.000000000
  95       -0.000240690
  96        0.000532487
  97        0.000000000
  98       -0.000001141
  99        0.000000000
 100        0.000000000
 101       -0.000024557
 102       -0.000099182
 103        0.098617520
 104       -0.000646871
 105        0.003744910
 106       -0.000350666
 107       -0.000196219
 108        0.000150111
 109        0.000000000
 110       -0.000343611
 111       -0.000064928
 112        0.000000000
 113       -0.000354763
 114        0.000418709
 115        0.000000000
 116       -0.000184946
 117        0.000000000
 118        0.000000000
 119       -0.000039577
 120       -0.000090751
 121        0.000237889
 122        0.000000000
 123        0.000000000
 124        0.000465905
 125       -0.001404472
 126        0.000000000
 127       -0.000078506
 128        0.000081285
 129        0.000000000
 130        0.000000000
 131       -0.000159631
 132       -0.000186119
 133       -0.000003727
 134        0.001152241
 135       -0.000054261
 136        0.000040896
 137        0.000036892
 138        0.000000000
 139        0.000240690
 140       -0.000532487
 141        0.000000000
 142       -0.000001141
 143        0.000000000
 144        0.000000000
 145       -0.000024557
 146       -0.000099182
 147       -0.684770116
 148       -0.000927208
 149       -0.028304039
 150       -0.001574533
 151        0.000533399
 152       -0.000512440
 153        0.000000000
 154        0.000371390
 155       -0.000519937
 156        0.000000000
 157        0.000099112
 158        0.000130552
 159        0.000000000
 160        0.000598194
 161        0.000000000
 162        0.000000000
 163       -0.000005369
 164        0.000255449
 165       -0.000311008
 166        0.000000000
 167        0.000000000
 168        0.000186016
 169        0.000293104
 170        0.000000000
 171        0.000010903
 172       -0.000014708
 173        0.000000000
 174        0.000000000
 175       -0.000330486
 176       -0.000327777
 177       -0.000172218
 178       -0.001141042
 179        0.000171760
 180        0.000051567
 181        0.000202774
 182        0.000000000
 183       -0.000018469
 184       -0.000410420
 185        0.000000000
 186        0.000012360
 187        0.000000000
 188        0.000000000
 189       -0.000085555
 190        0.000069172
 191       -0.000165447
 192       -0.001401904
 193        0.000054580
 194       -0.000209358
 195       -0.000053420
 196        0.000000000
 197        0.000449127
 198        0.000087300
 199        0.000000000
 200        0.000003358
 201        0.000000000
 202        0.000000000
 203        0.000089624
 204        0.000056693
 Sym= Ag  
 Ene=        -1.710047
 Spin= Alpha
 Occup=       2.000000
   1       -0.012194154
   2        0.206274822
   3        0.049851529
   4        0.099788553
   5        0.027291870
   6       -0.021741104
   7        0.000000000
   8        0.019987937
   9       -0.015554354
  10        0.000000000
  11        0.012165476
  12       -0.008937777
  13        0.000000000
  14       -0.006064260
  15        0.000000000
  16        0.000000000
  17        0.000931387
  18       -0.003872418
  19       -0.010469167
  20        0.000000000
  21        0.000000000
  22       -0.008468318
  23        0.002307728
  24        0.000000000
  25       -0.000714502
  26        0.000682971
  27        0.000000000
  28        0.000000000
  29       -0.002864457
  30       -0.002880861
  31        0.021798496
  32       -0.001174125
  33        0.004313205
  34        0.000151310
  35       -0.002137867
  36        0.000000000
  37        0.003566329
  38        0.008297047
  39        0.000000000
  40       -0.000032553
  41        0.000000000
  42        0.000000000
  43        0.000368531
  44       -0.000795720
  45        0.019787666
  46        0.005604531
  47        0.003285922
  48        0.001743373
  49       -0.000025054
  50        0.000000000
  51       -0.006398093
  52        0.000689477
  53        0.000000000
  54        0.000393623
  55        0.000000000
  56        0.000000000
  57       -0.000657347
  58       -0.000161465
  59       -0.018067689
  60        0.313119279
  61        0.075613051
  62        0.072921148
  63        0.009379931
  64        0.020339395
  65        0.000000000
  66        0.011309409
  67        0.010245617
  68        0.000000000
  69        0.014317592
  70       -0.025158625
  71        0.000000000
  72       -0.009388415
  73        0.000000000
  74        0.000000000
  75        0.002911716
  76       -0.002837310
  77       -0.011016192
  78        0.000000000
  79        0.000000000
  80       -0.014593319
  81        0.006446358
  82        0.000000000
  83        0.000019718
  84       -0.000469291
  85        0.000000000
  86        0.000000000
  87        0.005042650
  88        0.003814844
  89        0.032579306
  90       -0.002384258
  91       -0.000255422
  92        0.001088476
  93        0.002676408
  94        0.000000000
  95       -0.003923035
  96       -0.012314795
  97        0.000000000
  98       -0.000213574
  99        0.000000000
 100        0.000000000
 101        0.001206619
 102       -0.000518683
 103       -0.018067689
 104        0.313119279
 105        0.075613051
 106        0.072921148
 107       -0.009379931
 108       -0.020339395
 109        0.000000000
 110       -0.011309409
 111       -0.010245617
 112        0.000000000
 113       -0.014317592
 114        0.025158625
 115        0.000000000
 116       -0.009388415
 117        0.000000000
 118        0.000000000