[Molden Format]
[N_ATOMS]
           13
[Atoms]  AU
H     1    1       2.082473       -4.351385        0.000000
H     2    1       5.196379       -1.107575        0.000000
H     3    1       3.676965        3.412670        0.000000
H     4    1      -0.169457        6.092010        0.000000
H     5    1      -3.177743        4.744703        0.000000
C     6    6       3.209307       -0.594886        0.000000
C     7    6       2.374171        1.833288        0.000000
C     8    6      -0.323428        2.163417        0.000000
C     9    6      -1.146628       -2.174397        0.000000
O    10    8      -2.511304       -4.048706        0.000000
N    11    7      -1.977692        0.295025        0.000000
N    12    7       1.513853       -2.520846        0.000000
N    13    7      -1.278834        4.545064        0.000000
[5D7F9G]
[GTO]
    1
    s    3
   0.340613410E+02   0.254393168E-01
   0.512357460E+01   0.190085934E+00
   0.116466260E+01   0.852441139E+00
    s    1
   0.327230410E+00   0.100000000E+01
    s    1
   0.103072410E+00   0.100000000E+01
    p    1
   0.800000000E+00   0.100000000E+01
 
    2
    s    3
   0.340613410E+02   0.254393168E-01
   0.512357460E+01   0.190085934E+00
   0.116466260E+01   0.852441139E+00
    s    1
   0.327230410E+00   0.100000000E+01
    s    1
   0.103072410E+00   0.100000000E+01
    p    1
   0.800000000E+00   0.100000000E+01
 
    3
    s    3
   0.340613410E+02   0.254393168E-01
   0.512357460E+01   0.190085934E+00
   0.116466260E+01   0.852441139E+00
    s    1
   0.327230410E+00   0.100000000E+01
    s    1
   0.103072410E+00   0.100000000E+01
    p    1
   0.800000000E+00   0.100000000E+01
 
    4
    s    3
   0.340613410E+02   0.254393168E-01
   0.512357460E+01   0.190085934E+00
   0.116466260E+01   0.852441139E+00
    s    1
   0.327230410E+00   0.100000000E+01
    s    1
   0.103072410E+00   0.100000000E+01
    p    1
   0.800000000E+00   0.100000000E+01
 
    5
    s    3
   0.340613410E+02   0.254393168E-01
   0.512357460E+01   0.190085934E+00
   0.116466260E+01   0.852441139E+00
    s    1
   0.327230410E+00   0.100000000E+01
    s    1
   0.103072410E+00   0.100000000E+01
    p    1
   0.800000000E+00   0.100000000E+01
 
    6
    s    6
   0.135753497E+05   0.606460100E-03
   0.203523337E+04   0.469789850E-02
   0.463225624E+03   0.243324735E-01
   0.131200196E+03   0.973999560E-01
   0.428530159E+02   0.301955844E+00
   0.155841858E+02   0.662336101E+00
    s    2
   0.620671385E+01   0.655953079E+00
   0.257648965E+01   0.375856339E+00
    s    1
   0.576963394E+00   0.100000000E+01
    s    1
   0.229728314E+00   0.100000000E+01
    s    1
   0.951644400E-01   0.100000000E+01
    p    4
   0.346972322E+02   0.113272290E-01
   0.795826228E+01   0.761696612E-01
   0.237808269E+01   0.301922515E+00
   0.814332082E+00   0.727850277E+00
    p    1
   0.288875473E+00   0.100000000E+01
    p    1
   0.100568237E+00   0.100000000E+01
    d    1
   0.800000000E+00   0.100000000E+01
 
    7
    s    6
   0.135753497E+05   0.606460100E-03
   0.203523337E+04   0.469789850E-02
   0.463225624E+03   0.243324735E-01
   0.131200196E+03   0.973999560E-01
   0.428530159E+02   0.301955844E+00
   0.155841858E+02   0.662336101E+00
    s    2
   0.620671385E+01   0.655953079E+00
   0.257648965E+01   0.375856339E+00
    s    1
   0.576963394E+00   0.100000000E+01
    s    1
   0.229728314E+00   0.100000000E+01
    s    1
   0.951644400E-01   0.100000000E+01
    p    4
   0.346972322E+02   0.113272290E-01
   0.795826228E+01   0.761696612E-01
   0.237808269E+01   0.301922515E+00
   0.814332082E+00   0.727850277E+00
    p    1
   0.288875473E+00   0.100000000E+01
    p    1
   0.100568237E+00   0.100000000E+01
    d    1
   0.800000000E+00   0.100000000E+01
 
    8
    s    6
   0.135753497E+05   0.606460100E-03
   0.203523337E+04   0.469789850E-02
   0.463225624E+03   0.243324735E-01
   0.131200196E+03   0.973999560E-01
   0.428530159E+02   0.301955844E+00
   0.155841858E+02   0.662336101E+00
    s    2
   0.620671385E+01   0.655953079E+00
   0.257648965E+01   0.375856339E+00
    s    1
   0.576963394E+00   0.100000000E+01
    s    1
   0.229728314E+00   0.100000000E+01
    s    1
   0.951644400E-01   0.100000000E+01
    p    4
   0.346972322E+02   0.113272290E-01
   0.795826228E+01   0.761696612E-01
   0.237808269E+01   0.301922515E+00
   0.814332082E+00   0.727850277E+00
    p    1
   0.288875473E+00   0.100000000E+01
    p    1
   0.100568237E+00   0.100000000E+01
    d    1
   0.800000000E+00   0.100000000E+01
 
    9
    s    6
   0.135753497E+05   0.606460100E-03
   0.203523337E+04   0.469789850E-02
   0.463225624E+03   0.243324735E-01
   0.131200196E+03   0.973999560E-01
   0.428530159E+02   0.301955844E+00
   0.155841858E+02   0.662336101E+00
    s    2
   0.620671385E+01   0.655953079E+00
   0.257648965E+01   0.375856339E+00
    s    1
   0.576963394E+00   0.100000000E+01
    s    1
   0.229728314E+00   0.100000000E+01
    s    1
   0.951644400E-01   0.100000000E+01
    p    4
   0.346972322E+02   0.113272290E-01
   0.795826228E+01   0.761696612E-01
   0.237808269E+01   0.301922515E+00
   0.814332082E+00   0.727850277E+00
    p    1
   0.288875473E+00   0.100000000E+01
    p    1
   0.100568237E+00   0.100000000E+01
    d    1
   0.800000000E+00   0.100000000E+01
 
   10
    s    6
   0.270323826E+05   0.572265400E-03
   0.405238714E+04   0.443533330E-02
   0.922327227E+03   0.230201034E-01
   0.261240710E+03   0.928224938E-01
   0.853546414E+02   0.293784997E+00
   0.310350352E+02   0.674016046E+00
    s    2
   0.122608607E+02   0.638399375E+00
   0.499870760E+01   0.395345866E+00
    s    1
   0.117031082E+01   0.100000000E+01
    s    1
   0.464747410E+00   0.100000000E+01
    s    1
   0.185045364E+00   0.100000000E+01
    p    4
   0.632749548E+02   0.120183316E-01
   0.146270494E+02   0.830054304E-01
   0.445012235E+01   0.319917439E+00
   0.152757996E+01   0.707155425E+00
    p    1
   0.529351179E+00   0.100000000E+01
    p    1
   0.174784213E+00   0.100000000E+01
    d    1
   0.120000000E+01   0.100000000E+01
 
   11
    s    6
   0.197308006E+05   0.586264400E-03
   0.295789587E+04   0.454287970E-02
   0.673221336E+03   0.235584125E-01
   0.190682495E+03   0.947091862E-01
   0.622954419E+02   0.297197843E+00
   0.226541612E+02   0.669162480E+00
    s    2
   0.897914774E+01   0.645966837E+00
   0.368630024E+01   0.387005743E+00
    s    1
   0.846600768E+00   0.100000000E+01
    s    1
   0.336471338E+00   0.100000000E+01
    s    1
   0.136476537E+00   0.100000000E+01
    p    4
   0.492003805E+02   0.114488217E-01
   0.113467905E+02   0.784223390E-01
   0.342739724E+01   0.308180948E+00
   0.117855251E+01   0.720271963E+00
    p    1
   0.416422050E+00   0.100000000E+01
    p    1
   0.142608260E+00   0.100000000E+01
    d    1
   0.100000000E+01   0.100000000E+01
 
   12
    s    6
   0.197308006E+05   0.586264400E-03
   0.295789587E+04   0.454287970E-02
   0.673221336E+03   0.235584125E-01
   0.190682495E+03   0.947091862E-01
   0.622954419E+02   0.297197843E+00
   0.226541612E+02   0.669162480E+00
    s    2
   0.897914774E+01   0.645966837E+00
   0.368630024E+01   0.387005743E+00
    s    1
   0.846600768E+00   0.100000000E+01
    s    1
   0.336471338E+00   0.100000000E+01
    s    1
   0.136476537E+00   0.100000000E+01
    p    4
   0.492003805E+02   0.114488217E-01
   0.113467905E+02   0.784223390E-01
   0.342739724E+01   0.308180948E+00
   0.117855251E+01   0.720271963E+00
    p    1
   0.416422050E+00   0.100000000E+01
    p    1
   0.142608260E+00   0.100000000E+01
    d    1
   0.100000000E+01   0.100000000E+01
 
   13
    s    6
   0.197308006E+05   0.586264400E-03
   0.295789587E+04   0.454287970E-02
   0.673221336E+03   0.235584125E-01
   0.190682495E+03   0.947091862E-01
   0.622954419E+02   0.297197843E+00
   0.226541612E+02   0.669162480E+00
    s    2
   0.897914774E+01   0.645966837E+00
   0.368630024E+01   0.387005743E+00
    s    1
   0.846600768E+00   0.100000000E+01
    s    1
   0.336471338E+00   0.100000000E+01
    s    1
   0.136476537E+00   0.100000000E+01
    p    4
   0.492003805E+02   0.114488217E-01
   0.113467905E+02   0.784223390E-01
   0.342739724E+01   0.308180948E+00
   0.117855251E+01   0.720271963E+00
    p    1
   0.416422050E+00   0.100000000E+01
    p    1
   0.142608260E+00   0.100000000E+01
    d    1
   0.100000000E+01   0.100000000E+01
 
[MO]
 Sym= A'  
 Ene=       -20.500253
 Spin= Alpha
 Occup=       0.000000
   1        0.000028941
   2        0.000175914
   3        0.000379630
   4       -0.000035487
   5        0.000032579
   6        0.000000000
   7       -0.000011990
   8        0.000057998
   9        0.000033127
  10       -0.000011430
  11       -0.000015631
  12        0.000000000
  13        0.000010454
  14       -0.000039233
  15       -0.000300001
  16       -0.000000192
  17        0.000002910
  18        0.000000000
  19        0.000016411
  20       -0.000050445
  21       -0.000052650
  22       -0.000000862
  23        0.000005018
  24        0.000000000
  25        0.000001457
  26       -0.000056536
  27        0.000014484
  28       -0.000025077
  29        0.000007576
  30        0.000000000
  31        0.000000483
  32       -0.000004039
  33        0.000125745
  34       -0.000703216
  35        0.000730520
  36       -0.000010868
  37       -0.000006588
  38        0.000000000
  39        0.000246223
  40        0.000129323
  41        0.000000000
  42       -0.000189059
  43        0.000455165
  44        0.000000000
  45        0.000031483
  46        0.000000000
  47        0.000000000
  48       -0.000008622
  49       -0.000029860
  50       -0.000000686
  51        0.000003275
  52       -0.000026604
  53        0.000151149
  54       -0.001523983
  55        0.000004480
  56        0.000012080
  57        0.000000000
  58        0.000041798
  59       -0.000105158
  60        0.000000000
  61        0.000361076
  62        0.000783410
  63        0.000000000
  64        0.000005568
  65        0.000000000
  66        0.000000000
  67       -0.000020604
  68        0.000009035
  69       -0.000000735
  70        0.000001566
  71        0.000061031
  72       -0.000399421
  73        0.000491977
  74       -0.000015818
  75        0.000008070
  76        0.000000000
  77        0.000208071
  78        0.000124622
  79        0.000000000
  80        0.000352130
  81       -0.000297651
  82        0.000000000
  83        0.000023713
  84        0.000000000
  85        0.000000000
  86        0.000035755
  87       -0.000019414
  88       -0.000002756
  89       -0.000082033
  90        0.000534804
  91       -0.000262683
  92       -0.001709194
  93       -0.000218538
  94       -0.000269738
  95        0.000000000
  96       -0.000360640
  97       -0.000765655
  98        0.000000000
  99        0.000730020
 100        0.001538541
 101        0.000000000
 102       -0.000105226
 103        0.000000000
 104        0.000000000
 105       -0.000017366
 106        0.000129035
 107        0.435648458
 108        0.642377584
 109        0.022036892
 110       -0.009560846
 111        0.006186906
 112        0.001180265
 113        0.001465798
 114        0.000000000
 115       -0.001029280
 116       -0.001275725
 117        0.000000000
 118        0.000900082
 119        0.001060843
 120        0.000000000
 121       -0.000055002
 122        0.000000000
 123        0.000000000
 124        0.000043301
 125       -0.000138248
 126       -0.000000039
 127        0.000005402
 128       -0.000061513
 129        0.000392472
 130       -0.000350460
 131       -0.000048832
 132       -0.000012953
 133        0.000000000
 134        0.000278957
 135        0.000039289
 136        0.000000000
 137       -0.000162253
 138        0.000403061
 139        0.000000000
 140       -0.000004807
 141        0.000000000
 142        0.000000000
 143        0.000042134
 144       -0.000021569
 145        0.000001088
 146       -0.000001376
 147        0.000057241
 148       -0.000116928
 149        0.000410988
 150       -0.000025057
 151       -0.000047874
 152        0.000000000
 153        0.000178230
 154        0.000291546
 155        0.000000000
 156        0.000134300
 157        0.000497101
 158        0.000000000
 159        0.000017468
 160        0.000000000
 161        0.000000000
 162       -0.000031600
 163       -0.000027439
 164       -0.000000460
 165        0.000003057
 166       -0.000046344
 167        0.000159044
 168        0.000124319
 169        0.000004031
 170        0.000014187
 171        0.000000000
 172       -0.000038783
 173       -0.000073146
 174        0.000000000
 175        0.000014799
 176        0.000082198
 177        0.000000000
 178       -0.000008661
 179        0.000000000
 180        0.000000000
 181       -0.000001577
 182       -0.000002171
 Sym= A'  
 Ene=       -15.625403
 Spin= Alpha
 Occup=       0.000000
   1       -0.000222438
   2       -0.000194536
   3        0.000289348
   4       -0.000040167
   5        0.000049046
   6        0.000000000
   7       -0.000009878
   8        0.000307318
   9        0.000708794
  10       -0.000095055
  11       -0.000033013
  12        0.000000000
  13        0.000005296
  14        0.000040293
  15       -0.000311205
  16       -0.000007352
  17       -0.000024865
  18        0.000000000
  19       -0.000010540
  20        0.000081250
  21        0.000052252
  22       -0.000010410
  23        0.000005243
  24        0.000000000
  25        0.000013432
  26       -0.000097622
  27        0.000088761
  28       -0.000005474
  29        0.000005195
  30        0.000000000
  31       -0.000010547
  32        0.000024104
  33       -0.000332693
  34       -0.000024634
  35        0.005044528
  36        0.000163845
  37        0.000187503
  38        0.000000000
  39        0.000049445
  40        0.000252219
  41        0.000000000
  42       -0.003017346
  43       -0.000406313
  44        0.000000000
  45        0.000036891
  46        0.000000000
  47        0.000000000
  48       -0.000023348
  49       -0.000000415
  50       -0.000001248
  51        0.000004338
  52       -0.000109610
  53        0.000316908
  54       -0.005628305
  55        0.000031806
  56       -0.000013144
  57        0.000000000
  58       -0.000230893
  59       -0.000088599
  60        0.000000000
  61        0.002230288
  62        0.000852436
  63        0.000000000
  64       -0.000009357
  65        0.000000000
  66        0.000000000
  67       -0.000033995
  68        0.000012355
  69       -0.000000541
  70        0.000002683
  71       -0.000043448
  72       -0.000068883
  73        0.002407811
  74       -0.000011116
  75        0.000026676
  76        0.000000000
  77       -0.000015793
  78       -0.000175836
  79        0.000000000
  80        0.002277513
  81        0.000338926
  82        0.000000000
  83       -0.000010785
  84        0.000000000
  85        0.000000000
  86       -0.000016870
  87        0.000004895
  88       -0.000008334
  89        0.000032599
  90       -0.000310737
  91        0.000284189
  92        0.002204933
  93       -0.000241651
  94        0.000025716
  95        0.000000000
  96        0.000052829
  97        0.000147108
  98        0.000000000
  99        0.001411046
 100        0.000227023
 101        0.000000000
 102        0.000037294
 103        0.000000000
 104        0.000000000
 105       -0.000017650
 106       -0.000033645
 107       -0.000002679
 108       -0.000007161
 109       -0.000014557
 110        0.000054764
 111        0.000287989
 112       -0.000006553
 113        0.000002893
 114        0.000000000
 115        0.000154200
 116        0.000037108
 117        0.000000000
 118       -0.000146782
 119        0.000124414
 120        0.000000000
 121       -0.000016356
 122        0.000000000
 123        0.000000000
 124        0.000008600
 125        0.000026910
 126        0.000054969
 127        0.000067882
 128        0.000044969
 129       -0.000213507
 130        0.000821223
 131       -0.000017571
 132       -0.000002158
 133        0.000000000
 134        0.000124079
 135       -0.000076347
 136        0.000000000
 137       -0.000265345
 138        0.000366731
 139        0.000000000
 140       -0.000014515
 141        0.000000000
 142        0.000000000
 143        0.000010317
 144       -0.000034592
 145       -0.448895117
 146       -0.630048990
 147       -0.021361702
 148        0.010402772
 149       -0.010884774
 150       -0.000212822
 151       -0.000258926
 152        0.000000000
 153        0.000159609
 154        0.000493962
 155        0.000000000
 156        0.000292437
 157       -0.001842344
 158        0.000000000
 159        0.000024030
 160        0.000000000
 161        0.000000000
 162        0.000016204
 163       -0.000000437
 164       -0.000008870
 165       -0.000011587
 166       -0.000010720
 167        0.000037112
 168        0.000117140
 169       -0.000005668
 170        0.000000243
 171        0.000000000
 172        0.000022832
 173       -0.000020196
 174        0.000000000
 175       -0.000303318
 176       -0.000286046
 177        0.000000000
 178       -0.000006021
 179        0.000000000
 180        0.000000000
 181        0.000003306
 182       -0.000009307
 Sym= A'  
 Ene=       -15.595177
 Spin= Alpha
 Occup=       0.000000
   1       -0.000007909
   2        0.000052422
   3        0.000064496
   4       -0.000000930
   5        0.000011201
   6        0.000000000
   7       -0.000012886
   8        0.000080601
   9        0.000564209
  10       -0.000007438
  11       -0.000009848
  12        0.000000000
  13       -0.000033067
  14        0.000093382
  15        0.000444927
  16       -0.000003657
  17       -0.000007370
  18        0.000000000
  19       -0.000270699
  20        0.000195239
  21        0.000552275
  22       -0.000048921
  23       -0.000081605
  24        0.000000000
  25       -0.000239243
  26       -0.000007504
  27        0.000456620
  28        0.000064485
  29       -0.000023096
  30        0.000000000
  31        0.000000761
  32       -0.000002259
  33        0.000026085
  34       -0.000123059
  35        0.000245964
  36       -0.000006607
  37        0.000005595
  38        0.000000000
  39       -0.000026852
  40        0.000026918
  41        0.000000000
  42       -0.001150494
  43        0.000015644
  44        0.000000000
  45       -0.000004869
  46        0.000000000
  47        0.000000000
  48       -0.000002847
  49       -0.000009001
  50       -0.000001646
  51        0.000005216
  52       -0.000103303
  53        0.000298520
  54       -0.002790759
  55        0.000000928
  56       -0.000024234
  57        0.000000000
  58       -0.000133496
  59        0.000181721
  60        0.000000000
  61        0.001052362
  62       -0.001539338
  63        0.000000000
  64       -0.000009415
  65        0.000000000
  66        0.000000000
  67        0.000009694
  68       -0.000049473
  69       -0.000009060
  70        0.000017097
  71       -0.000279275
  72       -0.000141858
  73        0.004695189
  74        0.000077252
  75       -0.000202497
  76        0.000000000
  77        0.000142536
  78       -0.000465910
  79        0.000000000
  80        0.000844916
  81        0.006130274
  82        0.000000000
  83        0.000031156
  84        0.000000000
  85        0.000000000
  86        0.000028396
  87        0.000045094
  88        0.000001043
  89       -0.000003419
  90        0.000012768
  91       -0.000060229
  92        0.000832830
  93        0.000003991
  94        0.000003780
  95        0.000000000
  96       -0.000042201
  97        0.000031845
  98        0.000000000
  99       -0.000060459
 100        0.000556700
 101        0.000000000
 102       -0.000011766
 103        0.000000000
 104        0.000000000
 105       -0.000013384
 106       -0.000001516
 107        0.000000335
 108       -0.000003313
 109        0.000031027
 110       -0.000095613
 111        0.000163109
 112       -0.000000750
 113        0.000000243
 114        0.000000000
 115       -0.000001856
 116       -0.000005050
 117        0.000000000
 118        0.000042989
 119       -0.000013066
 120        0.000000000
 121       -0.000002590
 122        0.000000000
 123        0.000000000
 124        0.000001576
 125       -0.000003723
 126        0.000109216
 127        0.000133623
 128        0.000136283
 129       -0.000566694
 130        0.002860322
 131        0.000019286
 132        0.000010102
 133        0.000000000
 134       -0.000121243
 135        0.000034488
 136        0.000000000
 137        0.000855909
 138        0.000770716
 139        0.000000000
 140       -0.000006045
 141        0.000000000
 142        0.000000000
 143       -0.000027389
 144        0.000007326
 145        0.000008518
 146        0.000014242
 147       -0.000020016
 148        0.000074479
 149       -0.000554220
 150       -0.000000667
 151        0.000000124
 152        0.000000000
 153       -0.000011739
 154        0.000021627
 155        0.000000000
 156       -0.000097738
 157       -0.000077212
 158        0.000000000
 159       -0.000003989
 160        0.000000000
 161        0.000000000
 162        0.000006803
 163        0.000002349
 164       -0.448879028
 165       -0.630043741
 166       -0.021388238
 167        0.010422867
 168       -0.011947915
 169       -0.000176689
 170        0.000149751
 171        0.000000000
 172        0.000306952
 173       -0.000519861
 174        0.000000000
 175       -0.001317318
 176        0.001749688
 177        0.000000000
 178        0.000016998
 179        0.000000000
 180        0.000000000
 181       -0.000024911
 182       -0.000052227
 Sym= A'  
 Ene=       -15.541646
 Spin= Alpha
 Occup=       0.000000
   1       -0.000011780
   2        0.000542341
   3        0.000379293
   4       -0.000046559
   5        0.000110856
   6        0.000000000
   7        0.000012718
   8       -0.000317647
   9       -0.000921992
  10        0.000056423
  11       -0.000012725
  12        0.000000000
  13       -0.000001860
  14        0.000284421
  15       -0.000482219
  16       -0.000071596
  17       -0.000043699
  18        0.000000000
  19        0.000017293
  20        0.000069289
  21        0.000235491
  22       -0.000008077
  23       -0.000051403
  24        0.000000000
  25        0.000005799
  26       -0.000072533
  27       -0.000115954
  28        0.000000242
  29       -0.000005225
  30        0.000000000
  31       -0.000001410
  32        0.000007128
  33       -0.000001025
  34       -0.000555928
  35       -0.000349139
  36       -0.000003113
  37       -0.000005224
  38        0.000000000
  39        0.000525022
  40       -0.000208085
  41        0.000000000
  42        0.001942834
  43        0.000241423
  44        0.000000000
  45        0.000012205
  46        0.000000000
  47        0.000000000
  48        0.000026407
  49        0.000004188
  50       -0.000003159
  51        0.000010698
  52       -0.000259427
  53        0.001025399
  54       -0.000051362
  55        0.000008861
  56        0.000076009
  57        0.000000000
  58       -0.000372790
  59       -0.000823303
  60        0.000000000
  61       -0.000517838
  62        0.001575766
  63        0.000000000
  64       -0.000050339
  65        0.000000000
  66        0.000000000
  67        0.000033773
  68        0.000040370
  69       -0.000012600
  70        0.000009139
  71       -0.000250577
  72       -0.000799853
  73        0.003155242
  74        0.000205615
  75        0.000176067
  76        0.000000000
  77        0.000046335
  78        0.001011483
  79        0.000000000
  80       -0.001163907
  81       -0.004547661
  82        0.000000000
  83        0.000048628
  84        0.000000000
  85        0.000000000
  86        0.000068121
  87       -0.000037174
  88       -0.000007919
  89        0.000033349
  90       -0.000213349
  91       -0.000624792
  92        0.001890329
  93        0.000138870
  94       -0.000227713
  95        0.000000000
  96       -0.000440806
  97       -0.000921193
  98        0.000000000
  99       -0.000007257
 100        0.001033292
 101        0.000000000
 102        0.000089966
 103        0.000000000
 104        0.000000000
 105        0.000077117
 106       -0.000012290
 107       -0.000001336
 108       -0.000015008
 109        0.000077591
 110       -0.000287730
 111        0.000055571
 112        0.000021459
 113        0.000015081
 114        0.000000000
 115       -0.000132802
 116       -0.000016671
 117        0.000000000
 118        0.000076056
 119       -0.000106142
 120        0.000000000
 121       -0.000009322
 122        0.000000000
 123        0.000000000
 124       -0.000023104
 125       -0.000001344
 126       -0.448965803
 127       -0.630106317
 128       -0.021392177
 129        0.011720191
 130       -0.011849672
 131       -0.002365710
 132        0.000352211
 133        0.000000000
 134        0.002250780
 135       -0.000319980
 136        0.000000000
 137       -0.002630280
 138       -0.000249897
 139        0.000000000
 140        0.000067783
 141        0.000000000
 142        0.000000000
 143       -0.000033201
 144       -0.000012066
 145       -0.000058392
 146       -0.000076926
 147       -0.000076286
 148        0.000057309
 149        0.001453766
 150        0.000013208
 151       -0.000052271
 152        0.000000000
 153       -0.000268827
 154        0.000448927
 155        0.000000000
 156       -0.000094548
 157        0.001258103
 158        0.000000000
 159       -0.000025371
 160        0.000000000
 161        0.000000000
 162        0.000049647
 163       -0.000044924
 164       -0.000107597
 165       -0.000178738
 166        0.000199780
 167       -0.000808743
 168        0.002465921
 169        0.000020310
 170       -0.000027999
 171        0.000000000
 172       -0.000176726
 173        0.000073013
 174        0.000000000
 175        0.000280477
 176       -0.000543112
 177        0.000000000
 178        0.000012518
 179        0.000000000
 180        0.000000000
 181       -0.000015657
 182       -0.000001494
 Sym= A'  
 Ene=       -11.373140
 Spin= Alpha
 Occup=       0.000000
   1       -0.000069256
   2        0.000424962
   3        0.000170439
   4        0.000000827
   5        0.000076843
   6        0.000000000
   7        0.000042684
   8       -0.000518371
   9       -0.002091716
  10        0.000072639
  11       -0.000011290
  12        0.000000000
  13       -0.000036292
  14        0.000384072
  15        0.001768314
  16       -0.000041227
  17       -0.000031325
  18        0.000000000
  19       -0.000019759
  20        0.000160610
  21       -0.000067963
  22       -0.000008898
  23       -0.000025620
  24        0.000000000
  25       -0.000002093
  26       -0.000043318
  27       -0.000074856
  28       -0.000006946
  29        0.000009473
  30        0.000000000
  31       -0.000111149
  32       -0.000145316
  33       -0.000035062
  34        0.000089255
  35       -0.009951905
  36        0.000009732
  37        0.000020929
  38        0.000000000
  39        0.000364380
  40       -0.000167905
  41        0.000000000
  42        0.005661438
  43       -0.002842890
  44        0.000000000
  45       -0.000027904
  46        0.000000000
  47        0.000000000
  48        0.000021878
  49       -0.000018101
  50       -0.000023789
  51       -0.000031777
  52        0.000088137
  53       -0.000436380
  54        0.014176709
  55        0.000000365
  56        0.000001185
  57        0.000000000
  58        0.000009373
  59       -0.000183041
  60        0.000000000
  61       -0.003889232
  62       -0.005591885
  63        0.000000000
  64        0.000024089
  65        0.000000000
  66        0.000000000
  67       -0.000006398
  68       -0.000048463
  69       -0.000102451
  70       -0.000127754
  71       -0.000127467
  72        0.000348422
  73       -0.009121460
  74       -0.000006000
  75       -0.000003274
  76        0.000000000
  77        0.000031772
  78        0.000197888
  79        0.000000000
  80       -0.002516614
  81        0.004868731
  82        0.000000000
  83       -0.000033300
  84        0.000000000
  85        0.000000000
  86       -0.000031924
  87        0.000008098
  88        0.467690692
  89        0.612723490
  90        0.019500968
  91       -0.012251282
  92        0.003990734
  93        0.000791667
  94        0.000232999
  95        0.000000000
  96       -0.001069237
  97       -0.000572725
  98        0.000000000
  99        0.001394457
 100        0.002043082
 101        0.000000000
 102       -0.000334153
 103        0.000000000
 104        0.000000000
 105       -0.000157827
 106        0.000151627
 107       -0.000143570
 108       -0.000314504
 109        0.000291537
 110       -0.000071417
 111        0.002192694
 112        0.000211175
 113        0.000302274
 114        0.000000000
 115        0.000246063
 116        0.000325421
 117        0.000000000
 118        0.000375199
 119        0.000459497
 120        0.000000000
 121       -0.000103809
 122        0.000000000
 123        0.000000000
 124       -0.000098114
 125        0.000268598
 126       -0.000110915
 127       -0.000208417
 128        0.000285600
 129        0.000010281
 130        0.003497564
 131        0.000098980
 132       -0.000216636
 133        0.000000000
 134        0.000074073
 135       -0.000368741
 136        0.000000000
 137        0.001365252
 138       -0.000341442
 139        0.000000000
 140       -0.000016179
 141        0.000000000
 142        0.000000000
 143       -0.000050101
 144       -0.000067697
 145       -0.000092483
 146       -0.000189970
 147        0.000381231
 148       -0.000199762
 149        0.003713159
 150       -0.000258751
 151        0.000059532
 152        0.000000000
 153       -0.000384218
 154        0.000045885
 155        0.000000000
 156       -0.001381027
 157        0.001767594