 Entering Gaussian System, Link 0=/apps/software/g16/g16
 Initial command:
 /apps/software/g16/l1.exe "/scratch/Gau-109614.inp" -scrdir="/scratch/"
 Entering Link 1 = /apps/software/g16/l1.exe PID=    109615.
  
 Copyright (c) 1988,1990,1992,1993,1995,1998,2003,2009,2016,
            Gaussian, Inc.  All Rights Reserved.
  
 This is part of the Gaussian(R) 16 program.  It is based on
 the Gaussian(R) 09 system (copyright 2009, Gaussian, Inc.),
 the Gaussian(R) 03 system (copyright 2003, Gaussian, Inc.),
 the Gaussian(R) 98 system (copyright 1998, Gaussian, Inc.),
 the Gaussian(R) 94 system (copyright 1995, Gaussian, Inc.),
 the Gaussian 92(TM) system (copyright 1992, Gaussian, Inc.),
 the Gaussian 90(TM) system (copyright 1990, Gaussian, Inc.),
 the Gaussian 88(TM) system (copyright 1988, Gaussian, Inc.),
 the Gaussian 86(TM) system (copyright 1986, Carnegie Mellon
 University), and the Gaussian 82(TM) system (copyright 1983,
 Carnegie Mellon University). Gaussian is a federally registered
 trademark of Gaussian, Inc.
  
 This software contains proprietary and confidential information,
 including trade secrets, belonging to Gaussian, Inc.
  
 This software is provided under written license and may be
 used, copied, transmitted, or stored only in accord with that
 written license.
  
 The following legend is applicable only to US Government
 contracts under FAR:
  
                    RESTRICTED RIGHTS LEGEND
  
 Use, reproduction and disclosure by the US Government is
 subject to restrictions as set forth in subparagraphs (a)
 and (c) of the Commercial Computer Software - Restricted
 Rights clause in FAR 52.227-19.
  
 Gaussian, Inc.
 340 Quinnipiac St., Bldg. 40, Wallingford CT 06492
  
  
 ---------------------------------------------------------------
 Warning -- This program may not be used in any manner that
 competes with the business of Gaussian, Inc. or will provide
 assistance to any competitor of Gaussian, Inc.  The licensee
 of this program is prohibited from giving any competitor of
 Gaussian, Inc. access to this program.  By using this program,
 the user acknowledges that Gaussian, Inc. is engaged in the
 business of creating and licensing software in the field of
 computational chemistry and represents and warrants to the
 licensee that it is not a competitor of Gaussian, Inc. and that
 it will not use this program in any manner prohibited above.
 ---------------------------------------------------------------
  

 Cite this work as:
 Gaussian 16, Revision A.03,
 M. J. Frisch, G. W. Trucks, H. B. Schlegel, G. E. Scuseria, 
 M. A. Robb, J. R. Cheeseman, G. Scalmani, V. Barone, 
 G. A. Petersson, H. Nakatsuji, X. Li, M. Caricato, A. V. Marenich, 
 J. Bloino, B. G. Janesko, R. Gomperts, B. Mennucci, H. P. Hratchian, 
 J. V. Ortiz, A. F. Izmaylov, J. L. Sonnenberg, D. Williams-Young, 
 F. Ding, F. Lipparini, F. Egidi, J. Goings, B. Peng, A. Petrone, 
 T. Henderson, D. Ranasinghe, V. G. Zakrzewski, J. Gao, N. Rega, 
 G. Zheng, W. Liang, M. Hada, M. Ehara, K. Toyota, R. Fukuda, 
 J. Hasegawa, M. Ishida, T. Nakajima, Y. Honda, O. Kitao, H. Nakai, 
 T. Vreven, K. Throssell, J. A. Montgomery, Jr., J. E. Peralta, 
 F. Ogliaro, M. J. Bearpark, J. J. Heyd, E. N. Brothers, K. N. Kudin, 
 V. N. Staroverov, T. A. Keith, R. Kobayashi, J. Normand, 
 K. Raghavachari, A. P. Rendell, J. C. Burant, S. S. Iyengar, 
 J. Tomasi, M. Cossi, J. M. Millam, M. Klene, C. Adamo, R. Cammi, 
 J. W. Ochterski, R. L. Martin, K. Morokuma, O. Farkas, 
 J. B. Foresman, and D. J. Fox, Gaussian, Inc., Wallingford CT, 2016.
 
 ******************************************
 Gaussian 16:  ES64L-G16RevA.03 25-Dec-2016
                22-May-2022 
 ******************************************
 %oldchk=BH-0.9-UHF-G.chk
 %chk=BH-0.9-UMP2-G.chk
 Copying data from "BH-0.9-UHF-G.chk" to current chk file "BH-0.9-UMP2-G.chk"
 IOpt=  2 FromEx=T IUOpen= 4 IOptOp= 5 NList=   0 IFRang= 0 IUIn= 4 IUOut= 2.
 ------------------------------------
 #p UHF/aug-cc-pVQZ MP2=FC guess=read
 ------------------------------------
 1/38=1,172=1/1;
 2/12=2,17=6,18=5,40=1/2;
 3/5=16,6=2,7=10,11=2,25=1,30=1,116=2/1,2,3;
 4/5=1/1;
 5/5=2,38=6/2;
 8/10=1/1;
 9/16=-3/6;
 6/7=2,8=2,9=2,10=2/1;
 99/5=1,9=1/99;
 Leave Link    1 at Sun May 22 10:56:50 2022, MaxMem=   104857600 cpu:               0.0 elap:               0.0
 (Enter /apps/software/g16/l101.exe)
 ----------------------
 BH UHF at 0.9 Angstrom
 ----------------------
 Symbolic Z-matrix:
 Charge =  0 Multiplicity = 1
 B                     0.        0.        0. 
 H                     0.9       0.        0. 
 
 ITRead=  0  0
 MicOpt= -1 -1
 NAtoms=      2 NQM=        2 NQMF=       0 NMMI=      0 NMMIF=      0
                NMic=       0 NMicF=      0.
                    Isotopes and Nuclear Properties:
 (Nuclear quadrupole moments (NQMom) in fm**2, nuclear magnetic moments (NMagM)
  in nuclear magnetons)

  Atom         1           2
 IAtWgt=          11           1
 AtmWgt=  11.0093053   1.0078250
 NucSpn=           3           1
 AtZEff=  -0.0000000  -0.0000000
 NQMom=    4.0590000   0.0000000
 NMagM=    2.6886370   2.7928460
 AtZNuc=   5.0000000   1.0000000
 Leave Link  101 at Sun May 22 10:56:51 2022, MaxMem=   104857600 cpu:               0.1 elap:               0.1
 (Enter /apps/software/g16/l202.exe)
                          Input orientation:                          
 ---------------------------------------------------------------------
 Center     Atomic      Atomic             Coordinates (Angstroms)
 Number     Number       Type             X           Y           Z
 ---------------------------------------------------------------------
      1          5           0        0.000000    0.000000    0.000000
      2          1           0        0.900000    0.000000    0.000000
 ---------------------------------------------------------------------
 Stoichiometry    BH
 Framework group  C*V[C*(HB)]
 Deg. of freedom     1
 Full point group                 C*V     NOp   4
 Largest Abelian subgroup         C2V     NOp   4
 Largest concise Abelian subgroup C1      NOp   1
                         Standard orientation:                         
 ---------------------------------------------------------------------
 Center     Atomic      Atomic             Coordinates (Angstroms)
 Number     Number       Type             X           Y           Z
 ---------------------------------------------------------------------
      1          5           0        0.000000    0.000000    0.150000
      2          1           0        0.000000    0.000000   -0.750000
 ---------------------------------------------------------------------
 Rotational constants (GHZ):           0.0000000         675.7528621         675.7528621
 Leave Link  202 at Sun May 22 10:56:51 2022, MaxMem=   104857600 cpu:               0.0 elap:               0.0
 (Enter /apps/software/g16/l301.exe)
 Standard basis: Aug-CC-pVQZ (5D, 7F)
 Ernie: Thresh=  0.10000D-02 Tol=  0.10000D-05 Strict=F.
 Ernie:  4 primitive shells out of 54 were deleted.
 There are    68 symmetry adapted cartesian basis functions of A1  symmetry.
 There are    18 symmetry adapted cartesian basis functions of A2  symmetry.
 There are    37 symmetry adapted cartesian basis functions of B1  symmetry.
 There are    37 symmetry adapted cartesian basis functions of B2  symmetry.
 There are    50 symmetry adapted basis functions of A1  symmetry.
 There are    16 symmetry adapted basis functions of A2  symmetry.
 There are    30 symmetry adapted basis functions of B1  symmetry.
 There are    30 symmetry adapted basis functions of B2  symmetry.
   126 basis functions,   180 primitive gaussians,   160 cartesian basis functions
     3 alpha electrons        3 beta electrons
       nuclear repulsion energy         2.9398733940 Hartrees.
 IExCor=    0 DFT=F Ex=HF Corr=None ExCW=0 ScaHFX=  1.000000
 ScaDFX=  1.000000  1.000000  1.000000  1.000000 ScalE2=  1.000000  1.000000
 IRadAn=      5 IRanWt=     -1 IRanGd=            0 ICorTp=0 IEmpDi=  4
 NAtoms=    2 NActive=    2 NUniq=    2 SFac= 1.00D+00 NAtFMM=   60 NAOKFM=F Big=F
 Integral buffers will be    131072 words long.
 Raffenetti 2 integral format.
 Two-electron integral symmetry is turned on.
 Leave Link  301 at Sun May 22 10:56:51 2022, MaxMem=   104857600 cpu:               0.1 elap:               0.1
 (Enter /apps/software/g16/l302.exe)
 NPDir=0 NMtPBC=     1 NCelOv=     1 NCel=       1 NClECP=     1 NCelD=      1
         NCelK=      1 NCelE2=     1 NClLst=     1 CellRange=     0.0.
 One-electron integrals computed using PRISM.
 One-electron integral symmetry used in STVInt
 NBasis=   126 RedAO= T EigKep=  4.25D-05  NBF=    50    16    30    30
 NBsUse=   126 1.00D-06 EigRej= -1.00D+00 NBFU=    50    16    30    30
 Leave Link  302 at Sun May 22 10:56:51 2022, MaxMem=   104857600 cpu:               0.1 elap:               0.1
 (Enter /apps/software/g16/l303.exe)
 DipDrv:  MaxL=1.
 Leave Link  303 at Sun May 22 10:56:51 2022, MaxMem=   104857600 cpu:               0.0 elap:               0.0
 (Enter /apps/software/g16/l401.exe)
 Initial guess from the checkpoint file:  "BH-0.9-UMP2-G.chk"
 B after Tr=     0.000000    0.000000    0.000000
         Rot=    1.000000    0.000000    0.000000    0.000000 Ang=   0.00 deg.
 Guess basis will be translated and rotated to current coordinates.
 JPrj=2 DoOrth=T DoCkMO=T.
 Initial guess orbital symmetries:
 Alpha Orbitals:
       Occupied  (SG) (SG) (?A)
       Virtual   (?A) (?A) (?A) (?A) (?A) (?A) (?A) (?A) (?A) (?A)
                 (?A) (?A) (?A) (?A) (?A) (?A) (?A) (?A) (?A) (?A)
                 (?A) (?A) (?A) (?A) (?A) (?A) (?A) (?A) (?A) (?A)
                 (?A) (?A) (?B) (?B) (?B) (?B) (?B) (?C) (?C) (?C)
                 (?C) (?D) (?D) (?D) (?D) (?D) (?D) (?D) (?D) (?D)
                 (?D) (?D) (?D) (?D) (?D) (?D) (?D) (?E) (?E) (?E)
                 (?E) (?E) (SG) (PI) (PI) (SG) (?F) (?F) (?F) (?F)
                 (SG) (PI) (PI) (SG) (PI) (PI) (?G) (?G) (?G) (DLTA)
                 (DLTA) (?H) (?H) (?H) (?H) (?H) (?H) (?H) (?H)
                 (?H) (?H) (?H) (?H) (?H) (?H) (PI) (PI) (SG) (PI)
                 (PI) (DLTA) (DLTA) (SG) (SG) (PI) (PI) (PHI) (PHI)
                 (?I) (?I) (?I) (PI) (PI) (SG) (DLTA) (DLTA) (PI)
                 (PI) (SG) (PI) (PI) (SG) (SG)
 Beta  Orbitals:
       Occupied  (SG) (SG) (?A)
       Virtual   (?A) (?A) (?A) (?A) (?A) (?A) (?A) (?A) (?A) (?A)
                 (?A) (?A) (?A) (?A) (?A) (?A) (?A) (?A) (?A) (?A)
                 (?A) (?A) (?A) (?A) (?A) (?A) (?A) (?A) (?A) (?A)
                 (?A) (?A) (?B) (?B) (?B) (?B) (?B) (?C) (?C) (?C)
                 (?C) (?D) (?D) (?D) (?D) (?D) (?D) (?D) (?D) (?D)
                 (?D) (?D) (?D) (?D) (?D) (?D) (?D) (?E) (?E) (?E)
                 (?E) (?E) (SG) (PI) (PI) (SG) (?F) (?F) (?F) (?F)
                 (SG) (PI) (PI) (SG) (PI) (PI) (?G) (?G) (?G) (DLTA)
                 (DLTA) (?H) (?H) (?H) (?H) (?H) (?H) (?H) (?H)
                 (?H) (?H) (?H) (?H) (?H) (?H) (PI) (PI) (SG) (PI)
                 (PI) (DLTA) (DLTA) (SG) (SG) (PI) (PI) (PHI) (PHI)
                 (?I) (?I) (?I) (PI) (PI) (SG) (DLTA) (DLTA) (PI)
                 (PI) (SG) (PI) (PI) (SG) (SG)
 Initial guess <Sx>= 0.0000 <Sy>= 0.0000 <Sz>= 0.0000 <S**2>= 0.5456 S= 0.3920
 Leave Link  401 at Sun May 22 10:56:51 2022, MaxMem=   104857600 cpu:               0.1 elap:               0.1
 (Enter /apps/software/g16/l502.exe)
 Keep R1 and R2 ints in memory in symmetry-blocked form, NReq=40143665.
 FoFCou: FMM=F IPFlag=           0 FMFlag=           0 FMFlg1=           0
         NFxFlg=           0 DoJE=F BraDBF=F KetDBF=F FulRan=T
         wScrn=  0.000000 ICntrl=       600 IOpCl=  0 I1Cent=           0 NGrid=           0
         NMat0=    1 NMatS0=   8001 NMatT0=    0 NMatD0=    1 NMtDS0=    0 NMtDT0=    0
 Petite list used in FoFCou.
 UHF open shell SCF:
 Using DIIS extrapolation, IDIIS=  1040.
 NGot=   104857600 LenX=    88563632 LenY=    88537591
 Requested convergence on RMS density matrix=1.00D-08 within 128 cycles.
 Requested convergence on MAX density matrix=1.00D-06.
 Requested convergence on             energy=1.00D-06.
 No special actions if energy rises.
 An orbital has undefined symmetry, so N**3 symmetry is turned off.

 Cycle   1  Pass 1  IDiag  1:
 Density matrix breaks symmetry, PCut= 1.00D-07
 Density matrix has no symmetry -- integrals replicated.
 E= -25.0687224259372    
 DIIS: error= 3.01D-09 at cycle   1 NSaved=   1.
 NSaved= 1 IEnMin= 1 EnMin= -25.0687224259372     IErMin= 1 ErrMin= 3.01D-09
 ErrMax= 3.01D-09  0.00D+00 EMaxC= 1.00D-01 BMatC= 1.04D-15 BMatP= 1.04D-15
 IDIUse=1 WtCom= 1.00D+00 WtEn= 0.00D+00
 Coeff-Com:  0.100D+01
 Coeff:      0.100D+01
 Gap=     0.395 Goal=   None    Shift=    0.000
 Gap=     0.395 Goal=   None    Shift=    0.000
 RMSDP=2.17D-10 MaxDP=5.46D-09              OVMax= 1.82D-08

 Density matrix breaks symmetry, PCut= 1.00D-07
 Density matrix has no symmetry -- integrals replicated.
 SCF Done:  E(UHF) =  -25.0687224259     A.U. after    1 cycles
            NFock=  1  Conv=0.22D-09     -V/T= 1.9794
 <Sx>= 0.0000 <Sy>= 0.0000 <Sz>= 0.0000 <S**2>= 0.5456 S= 0.3920
 <L.S>=  0.00000000000    
 KE= 2.559716003542D+01 PE=-6.413560991674D+01 EE= 1.052985406139D+01
 Annihilation of the first spin contaminant:
 S**2 before annihilation     0.5456,   after     0.0040
 Leave Link  502 at Sun May 22 10:56:54 2022, MaxMem=   104857600 cpu:               3.6 elap:               3.6
 (Enter /apps/software/g16/l801.exe)
 ExpMin= 1.88D-02 ExpMax= 2.39D+04 ExpMxC= 2.30D+02 IAcc=3 IRadAn=         5 AccDes= 0.00D+00
 HarFok:  IExCor=  205 AccDes= 0.00D+00 IRadAn=         5 IDoV=-2 UseB2=F ITyADJ=14
 ICtDFT= 12500011 ScaDFX=  1.000000  1.000000  1.000000  1.000000
 Largest valence mixing into a core orbital is  2.84D-04
 Largest core mixing into a valence orbital is  3.79D-05
 Largest valence mixing into a core orbital is  2.84D-04
 Largest core mixing into a valence orbital is  3.79D-05
 Range of M.O.s used for correlation:     2   126
 NBasis=   126 NAE=     3 NBE=     3 NFC=     1 NFV=     0
 NROrb=    125 NOA=     2 NOB=     2 NVA=   123 NVB=   123

 **** Warning!!: The largest alpha MO coefficient is  0.33092344D+02


 **** Warning!!: The largest beta MO coefficient is  0.33092344D+02

 Leave Link  801 at Sun May 22 10:56:55 2022, MaxMem=   104857600 cpu:               0.1 elap:               0.1
 (Enter /apps/software/g16/l906.exe)
 FulOut=F Deriv=F AODrv=F NAtomX=     2
   MMem=         694  MDisk=           2 MDiskD=           2
  W3Min=       78720 MinDsk=      297938 NBas6D=         160
 NBas2D=       13447    NTT=       12880    LW2=     4508827
    MDV=   104734800 MDiskM=        1426 NBas2p=       13447
 Fully direct method using O(OVN) memory.
 IMap=   1   2
 JobTyp=2 Pass  1:  I=   1 to   2 NPSUse=  1 ParTrn=F ParDer=F DoDerP=F.
 IMap=   1   2
 JobTyp=3 Pass  1:  I=   1 to   2 NPSUse=  1 ParTrn=F ParDer=F DoDerP=F.
 Spin components of T(2) and E(2):
     alpha-alpha T2 =       0.9676169636D-03 E2=     -0.2533193676D-02
     alpha-beta  T2 =       0.2144917305D-01 E2=     -0.5905272477D-01
     beta-beta   T2 =       0.9676169636D-03 E2=     -0.2533193676D-02
 The integrals were generated   2 times.
 (S**2,0)=  0.54560D+00           (S**2,1)=  0.52870D+00
 E(PUHF)=      -0.25076942359D+02        E(PMP2)=      -0.25140934630D+02
 ANorm=    0.1011624637D+01
 E2 =    -0.6411911212D-01 EUMP2 =    -0.25132841538055D+02
 Leave Link  906 at Sun May 22 10:57:00 2022, MaxMem=   104857600 cpu:               5.5 elap:               5.5
 (Enter /apps/software/g16/l601.exe)
 Copying SCF densities to generalized density rwf, IOpCl= 1 IROHF=0.
 SCF density gives NOpUse=  1 NOpAll=  4.
 Marking SCF density as not fully symmetric.

 **********************************************************************

            Population analysis using the SCF density.

 **********************************************************************

 Orbital symmetries:
 Alpha Orbitals:
       Occupied  (SG) (SG) (?A)
       Virtual   (?A) (?A) (?A) (?A) (?A) (?A) (?A) (?A) (?A) (?A)
                 (?A) (?A) (?A) (?A) (?A) (?A) (?A) (?A) (?A) (?A)
                 (?A) (?A) (?A) (?A) (?A) (?A) (?A) (?A) (?A) (?A)
                 (?A) (?A) (?B) (?B) (?B) (?B) (?B) (?C) (?C) (?C)
                 (?C) (?D) (?D) (?D) (?D) (?D) (?D) (?D) (?D) (?D)
                 (?D) (?D) (?D) (?D) (?D) (?D) (?D) (?E) (?E) (?E)
                 (?E) (?E) (SG) (PI) (PI) (SG) (?F) (?F) (?F) (?F)
                 (SG) (PI) (PI) (SG) (PI) (PI) (?G) (?G) (?G) (DLTA)
                 (DLTA) (?H) (?H) (?H) (?H) (?H) (?H) (?H) (?H)
                 (?H) (?H) (?H) (?H) (?H) (?H) (PI) (PI) (SG) (PI)
                 (PI) (DLTA) (DLTA) (SG) (SG) (PI) (PI) (PHI) (PHI)
                 (?I) (?I) (?I) (PI) (PI) (SG) (DLTA) (DLTA) (PI)
                 (PI) (SG) (PI) (PI) (SG) (SG)
 Beta  Orbitals:
       Occupied  (SG) (SG) (?A)
       Virtual   (?A) (?A) (?A) (?A) (?A) (?A) (?A) (?A) (?A) (?A)
                 (?A) (?A) (?A) (?A) (?A) (?A) (?A) (?A) (?A) (?A)
                 (?A) (?A) (?A) (?A) (?A) (?A) (?A) (?A) (?A) (?A)
                 (?A) (?A) (?B) (?B) (?B) (?B) (?B) (?C) (?C) (?C)
                 (?C) (?D) (?D) (?D) (?D) (?D) (?D) (?D) (?D) (?D)
                 (?D) (?D) (?D) (?D) (?D) (?D) (?D) (?E) (?E) (?E)
                 (?E) (?E) (SG) (PI) (PI) (SG) (?F) (?F) (?F) (?F)
                 (SG) (PI) (PI) (SG) (PI) (PI) (?G) (?G) (?G) (DLTA)
                 (DLTA) (?H) (?H) (?H) (?H) (?H) (?H) (?H) (?H)
                 (?H) (?H) (?H) (?H) (?H) (?H) (PI) (PI) (SG) (PI)
                 (PI) (DLTA) (DLTA) (SG) (SG) (PI) (PI) (PHI) (PHI)
                 (?I) (?I) (?I) (PI) (PI) (SG) (DLTA) (DLTA) (PI)
                 (PI) (SG) (PI) (PI) (SG) (SG)
 Unable to determine electronic state:  an orbital has unidentified symmetry.
 Alpha  occ. eigenvalues --   -7.63782  -0.73321  -0.36834
 Alpha virt. eigenvalues --    0.02683   0.02845   0.03420   0.04309   0.08215
 Alpha virt. eigenvalues --    0.08987   0.12226   0.13087   0.13409   0.14602
 Alpha virt. eigenvalues --    0.14665   0.14677   0.17627   0.27184   0.27210
 Alpha virt. eigenvalues --    0.28761   0.33282   0.33331   0.41725   0.43424
 Alpha virt. eigenvalues --    0.43439   0.44394   0.46381   0.46396   0.47064
 Alpha virt. eigenvalues --    0.47515   0.49981   0.50581   0.50647   0.58541
 Alpha virt. eigenvalues --    0.60774   0.61186   0.77942   0.78022   0.78358
 Alpha virt. eigenvalues --    0.82358   0.82367   1.01423   1.03676   1.04538
 Alpha virt. eigenvalues --    1.05464   1.20994   1.21427   1.37521   1.37584
 Alpha virt. eigenvalues --    1.37585   1.37972   1.37973   1.40819   1.40832
 Alpha virt. eigenvalues --    1.42874   1.42902   1.45063   1.45070   1.45761
 Alpha virt. eigenvalues --    1.46332   1.47152   1.62990   1.64378   1.65051
 Alpha virt. eigenvalues --    1.73528   1.73540   1.89143   1.91012   1.91568
 Alpha virt. eigenvalues --    1.99262   2.02557   2.02557   2.03291   2.03293
 Alpha virt. eigenvalues --    2.15258   2.22818   2.23452   3.00035   3.16341
 Alpha virt. eigenvalues --    3.16934   3.32344   3.33774   3.34355   3.43472
 Alpha virt. eigenvalues --    3.43477   3.93553   3.93553   3.95146   3.95183
 Alpha virt. eigenvalues --    3.95233   3.97769   3.97796   4.04524   4.05533
 Alpha virt. eigenvalues --    4.07024   4.07851   4.08151   4.11263   4.11271
 Alpha virt. eigenvalues --    4.37926   4.38905   4.59503   4.67890   4.68799
 Alpha virt. eigenvalues --    4.82140   4.82161   5.70104   5.86956   6.02844
 Alpha virt. eigenvalues --    6.03685   6.98842   6.98842   7.96890   7.97876
 Alpha virt. eigenvalues --    7.98007   7.99141   7.99532   8.81138   9.13072
 Alpha virt. eigenvalues --    9.13073   9.26083   9.26494  10.31760  10.45778
 Alpha virt. eigenvalues --   10.46330  12.20513  18.21965
  Beta  occ. eigenvalues --   -7.63782  -0.73321  -0.36834
  Beta virt. eigenvalues --    0.02683   0.02845   0.03420   0.04309   0.08215
  Beta virt. eigenvalues --    0.08987   0.12226   0.13087   0.13409   0.14602
  Beta virt. eigenvalues --    0.14665   0.14677   0.17627   0.27184   0.27210
  Beta virt. eigenvalues --    0.28761   0.33282   0.33331   0.41725   0.43424
  Beta virt. eigenvalues --    0.43439   0.44394   0.46381   0.46396   0.47064
  Beta virt. eigenvalues --    0.47515   0.49981   0.50581   0.50647   0.58541
  Beta virt. eigenvalues --    0.60774   0.61186   0.77942   0.78022   0.78358
  Beta virt. eigenvalues --    0.82358   0.82367   1.01423   1.03676   1.04538
  Beta virt. eigenvalues --    1.05464   1.20994   1.21427   1.37521   1.37584
  Beta virt. eigenvalues --    1.37585   1.37972   1.37973   1.40819   1.40832
  Beta virt. eigenvalues --    1.42874   1.42902   1.45063   1.45070   1.45761
  Beta virt. eigenvalues --    1.46332   1.47152   1.62990   1.64378   1.65051
  Beta virt. eigenvalues --    1.73528   1.73540   1.89143   1.91012   1.91568
  Beta virt. eigenvalues --    1.99262   2.02557   2.02557   2.03291   2.03293
  Beta virt. eigenvalues --    2.15258   2.22818   2.23452   3.00035   3.16341
  Beta virt. eigenvalues --    3.16934   3.32344   3.33774   3.34355   3.43472
  Beta virt. eigenvalues --    3.43477   3.93553   3.93553   3.95146   3.95183
  Beta virt. eigenvalues --    3.95233   3.97769   3.97796   4.04524   4.05533
  Beta virt. eigenvalues --    4.07024   4.07851   4.08151   4.11263   4.11271
  Beta virt. eigenvalues --    4.37926   4.38905   4.59503   4.67890   4.68799
  Beta virt. eigenvalues --    4.82140   4.82161   5.70104   5.86956   6.02844
  Beta virt. eigenvalues --    6.03685   6.98842   6.98842   7.96890   7.97876
  Beta virt. eigenvalues --    7.98007   7.99141   7.99532   8.81138   9.13072
  Beta virt. eigenvalues --    9.13073   9.26083   9.26494  10.31760  10.45778
  Beta virt. eigenvalues --   10.46330  12.20513  18.21965
          Condensed to atoms (all electrons):
               1          2
     1  B    4.825817   0.164331
     2  H    0.164331   0.845521
          Atomic-Atomic Spin Densities.
               1          2
     1  B    0.000000   0.000000
     2  H    0.000000   0.000000
 Mulliken charges and spin densities:
               1          2
     1  B    0.009852   0.000000
     2  H   -0.009852   0.000000
 Sum of Mulliken charges =  -0.00000   0.00000
 Mulliken charges and spin densities with hydrogens summed into heavy atoms:
               1          2
     1  B   -0.000000   0.000000
 Electronic spatial extent (au):  <R**2>=             19.1708
 Charge=             -0.0000 electrons
 Dipole moment (field-independent basis, Debye):
    X=              0.0000    Y=              0.0000    Z=             -1.7806  Tot=              1.7806
 Quadrupole moment (field-independent basis, Debye-Ang):
   XX=             -7.2886   YY=             -6.0654   ZZ=             -9.1893
   XY=             -0.0000   XZ=              0.0000   YZ=              0.0000
 Traceless Quadrupole moment (field-independent basis, Debye-Ang):
   XX=              0.2259   YY=              1.4490   ZZ=             -1.6748
   XY=             -0.0000   XZ=              0.0000   YZ=              0.0000
 Octapole moment (field-independent basis, Debye-Ang**2):
  XXX=              0.0000  YYY=              0.0000  ZZZ=             -5.5099  XYY=              0.0000
  XXY=              0.0000  XXZ=             -2.1019  XZZ=              0.0000  YZZ=              0.0000
  YYZ=             -1.6797  XYZ=             -0.0000
 Hexadecapole moment (field-independent basis, Debye-Ang**3):
 XXXX=            -12.1824 YYYY=             -8.5704 ZZZZ=            -20.2819 XXXY=             -0.0000
 XXXZ=              0.0000 YYYX=             -0.0000 YYYZ=              0.0000 ZZZX=              0.0000
 ZZZY=              0.0000 XXYY=             -3.4586 XXZZ=             -5.5860 YYZZ=             -4.8592
 XXYZ=              0.0000 YYXZ=              0.0000 ZZXY=             -0.0000
 N-N= 2.939873394000D+00 E-N=-6.413560991898D+01  KE= 2.559716003542D+01
 Symmetry A1   KE= 2.534827322266D+01
 Symmetry A2   KE= 6.462801007087D-32
 Symmetry B1   KE= 2.488868127606D-01
 Symmetry B2   KE= 1.526842543395D-30
 Symmetry A1   SP= 0.000000000000D+00
 Symmetry A2   SP= 0.000000000000D+00
 Symmetry B1   SP= 0.000000000000D+00
 Symmetry B2   SP= 0.000000000000D+00
 Leave Link  601 at Sun May 22 10:57:00 2022, MaxMem=   104857600 cpu:               0.1 elap:               0.1
 (Enter /apps/software/g16/l9999.exe)
 1\1\GINC-CNODE16\SP\UMP2-FC\Aug-CC-pVQZ\B1H1\LCZ\22-May-2022\0\\#p UHF
 /aug-cc-pVQZ MP2=FC guess=read\\BH UHF at 0.9 Angstrom\\0,1\B,0,0.,0.,
 0.\H,0,0.9,0.,0.\\Version=ES64L-G16RevA.03\HF=-25.0687224\MP2=-25.1328
 415\PUHF=-25.0769424\PMP2-0=-25.1409346\S2=0.5456\S2-1=0.5287\S2A=0.00
 3982\RMSD=2.171e-10\PG=C*V [C*(H1B1)]\\@


 A COMPUTER IS LIKE A HORSE, IT WILL SENSE WEAKNESS.
     -- GREG WETTSTEIN
 Job cpu time:       0 days  0 hours  0 minutes  9.8 seconds.
 Elapsed time:       0 days  0 hours  0 minutes  9.8 seconds.
 File lengths (MBytes):  RWF=     16 Int=      0 D2E=      0 Chk=     67 Scr=      1
 Normal termination of Gaussian 16 at Sun May 22 10:57:00 2022.

Sender: Unischeduler System <lcz@mgt01>
Subject: Job 133857: <#!/bin/bash
#BSUB -J intel
#BSUB -o BH-0.9-UMP2-G.out
#BSUB -n 8
#BSUB -q cqueue
#BSUB -R span[hosts=1]
export g16root=/apps/software
source /apps/software/g16/bsd/g16.profile
export GAUSS_SCRDIR=/scratch
/apps/software/g16/g16 < BH-0.9-UMP2-G.inp > BH-0.9-UMP2-G.out> Done

Job <#!/bin/bash
#BSUB -J intel
#BSUB -o BH-0.9-UMP2-G.out
#BSUB -n 8
#BSUB -q cqueue
#BSUB -R span[hosts=1]
export g16root=/apps/software
source /apps/software/g16/bsd/g16.profile
export GAUSS_SCRDIR=/scratch
/apps/software/g16/g16 < BH-0.9-UMP2-G.inp > BH-0.9-UMP2-G.out> was submitted from host <mgt01> by user <lcz>.
Job was executed on host(s) <8*cnode16>, in queue <cqueue>, as user <lcz>.
</apps/users/lcz> was used as the home directory.
</apps/users/lcz/exe13/UMP2> was used as the working directory.
Started at 2022-05-22 10:56:50
Results reported at 2022-05-22 10:57:00

Your job looked like:

------------------------------------------------------------
# User input
#!/bin/bash
#BSUB -J intel
#BSUB -o BH-0.9-UMP2-G.out
#BSUB -n 8
#BSUB -q cqueue
#BSUB -R span[hosts=1]
export g16root=/apps/software
source /apps/software/g16/bsd/g16.profile
export GAUSS_SCRDIR=/scratch
/apps/software/g16/g16 < BH-0.9-UMP2-G.inp > BH-0.9-UMP2-G.out
------------------------------------------------------------

Successfully completed.

Resource usage summary:

    CPU time   :            8.32 sec.
    Max Memory :               213 MB
    Max Processes  :               5


The output (if any) follows:

