
                                        *****************
                                        * O   R   C   A *
                                        *****************

                                            #,                                       
                                            ###                                      
                                            ####                                     
                                            #####                                    
                                            ######                                   
                                           ########,                                 
                                     ,,################,,,,,                         
                               ,,#################################,,                 
                          ,,##########################################,,             
                       ,#########################################, ''#####,          
                    ,#############################################,,   '####,        
                  ,##################################################,,,,####,       
                ,###########''''           ''''###############################       
              ,#####''   ,,,,##########,,,,          '''####'''          '####       
            ,##' ,,,,###########################,,,                        '##       
           ' ,,###''''                  '''############,,,                           
         ,,##''                                '''############,,,,        ,,,,,,###''
      ,#''                                            '''#######################'''  
     '                                                          ''''####''''         
             ,#######,   #######,   ,#######,      ##                                
            ,#'     '#,  ##    ##  ,#'     '#,    #''#        ######   ,####,        
            ##       ##  ##   ,#'  ##            #'  '#       #        #'  '#        
            ##       ##  #######   ##           ,######,      #####,   #    #        
            '#,     ,#'  ##    ##  '#,     ,#' ,#      #,         ##   #,  ,#        
             '#######'   ##     ##  '#######'  #'      '#     #####' # '####'        



                  #######################################################
                  #                        -***-                        #
                  #          Department of theory and spectroscopy      #
                  #    Directorship and core code : Frank Neese         #
                  #        Max Planck Institute fuer Kohlenforschung    #
                  #                Kaiser Wilhelm Platz 1               #
                  #                 D-45470 Muelheim/Ruhr               #
                  #                      Germany                        #
                  #                                                     #
                  #                  All rights reserved                #
                  #                        -***-                        #
                  #######################################################


                         Program Version 5.0.0 -  RELEASE  -
                                (SVN: $Rev: 19529$)
                ($Date: 2021-06-28 11:36:33 +0200 (Mo, 28 Jun 2021) $)


 With contributions from (in alphabetic order):
   Daniel Aravena         : Magnetic Suceptibility
   Michael Atanasov       : Ab Initio Ligand Field Theory (pilot matlab implementation)
   Alexander A. Auer      : GIAO ZORA, VPT2 properties, NMR spectrum
   Ute Becker             : Parallelization
   Giovanni Bistoni       : ED, misc. LED, open-shell LED, HFLD
   Martin Brehm           : Molecular dynamics
   Dmytro Bykov           : SCF Hessian
   Vijay G. Chilkuri      : MRCI spin determinant printing, contributions to CSF-ICE
   Dipayan Datta          : RHF DLPNO-CCSD density
   Achintya Kumar Dutta   : EOM-CC, STEOM-CC
   Dmitry Ganyushin       : Spin-Orbit,Spin-Spin,Magnetic field MRCI
   Miquel Garcia          : C-PCM Hessian, Gaussian charge scheme
   Yang Guo               : DLPNO-NEVPT2, F12-NEVPT2, CIM, IAO-localization
   Andreas Hansen         : Spin unrestricted coupled pair/coupled cluster methods
   Benjamin Helmich-Paris : MC-RPA, TRAH-SCF, COSX integrals
   Lee Huntington         : MR-EOM, pCC
   Robert Izsak           : Overlap fitted RIJCOSX, COSX-SCS-MP3, EOM
   Marcus Kettner         : VPT2
   Christian Kollmar      : KDIIS, OOCD, Brueckner-CCSD(T), CCSD density, CASPT2, CASPT2-K
   Simone Kossmann        : Meta GGA functionals, TD-DFT gradient, OOMP2, MP2 Hessian
   Martin Krupicka        : Initial AUTO-CI
   Lucas Lang             : DCDCAS
   Marvin Lechner         : AUTO-CI (C++ implementation), FIC-MRCC
   Dagmar Lenk            : GEPOL surface, SMD
   Dimitrios Liakos       : Extrapolation schemes; Compound Job, initial MDCI parallelization
   Dimitrios Manganas     : Further ROCIS development; embedding schemes
   Dimitrios Pantazis     : SARC Basis sets
   Anastasios Papadopoulos: AUTO-CI, single reference methods and gradients
   Taras Petrenko         : DFT Hessian,TD-DFT gradient, ASA, ECA, R-Raman, ABS, FL, XAS/XES, NRVS
   Peter Pinski           : DLPNO-MP2, DLPNO-MP2 Gradient
   Christoph Reimann      : Effective Core Potentials
   Marius Retegan         : Local ZFS, SOC
   Christoph Riplinger    : Optimizer, TS searches, QM/MM, DLPNO-CCSD(T), (RO)-DLPNO pert. Triples
   Tobias Risthaus        : Range-separated hybrids, TD-DFT gradient, RPA, STAB
   Michael Roemelt        : Original ROCIS implementation
   Masaaki Saitow         : Open-shell DLPNO-CCSD energy and density
   Barbara Sandhoefer     : DKH picture change effects
   Avijit Sen             : IP-ROCIS
   Kantharuban Sivalingam : CASSCF convergence, NEVPT2, FIC-MRCI
   Bernardo de Souza      : ESD, SOC TD-DFT
   Georgi Stoychev        : AutoAux, RI-MP2 NMR
   Willem Van den Heuvel  : Paramagnetic NMR
   Boris Wezisla          : Elementary symmetry handling
   Frank Wennmohs         : Technical directorship


 We gratefully acknowledge several colleagues who have allowed us to
 interface, adapt or use parts of their codes:
   Stefan Grimme, W. Hujo, H. Kruse, P. Pracht,  : VdW corrections, initial TS optimization,
                  C. Bannwarth, S. Ehlert          DFT functionals, gCP, sTDA/sTD-DF
   Ed Valeev, F. Pavosevic, A. Kumar             : LibInt (2-el integral package), F12 methods
   Garnet Chan, S. Sharma, J. Yang, R. Olivares  : DMRG
   Ulf Ekstrom                                   : XCFun DFT Library
   Mihaly Kallay                                 : mrcc  (arbitrary order and MRCC methods)
   Jiri Pittner, Ondrej Demel                    : Mk-CCSD
   Frank Weinhold                                : gennbo (NPA and NBO analysis)
   Christopher J. Cramer and Donald G. Truhlar   : smd solvation model
   Lars Goerigk                                  : TD-DFT with DH, B97 family of functionals
   V. Asgeirsson, H. Jonsson                     : NEB implementation
   FAccTs GmbH                                   : IRC, NEB, NEB-TS, DLPNO-Multilevel, CI-OPT
                                                   MM, QMMM, 2- and 3-layer-ONIOM, Crystal-QMMM,
                                                   LR-CPCM, SF, NACMEs, symmetry and pop. for TD-DFT,
                                                   nearIR, NL-DFT gradient (VV10), updates on ESD,
                                                   ML-optimized integration grids
   S Lehtola, MJT Oliveira, MAL Marques          : LibXC Library
   Liviu Ungur et al                             : ANISO software


 Your calculation uses the libint2 library for the computation of 2-el integrals
 For citations please refer to: http://libint.valeyev.net

 Your ORCA version has been built with support for libXC version: 5.1.0
 For citations please refer to: https://tddft.org/programs/libxc/

 This ORCA versions uses:
   CBLAS   interface :  Fast vector & matrix operations
   LAPACKE interface :  Fast linear algebra routines
   SCALAPACK package :  Parallel linear algebra routines
   Shared memory     :  Shared parallel matrices
   BLAS/LAPACK       :  OpenBLAS 0.3.15  USE64BITINT DYNAMIC_ARCH NO_AFFINITY SkylakeX SINGLE_THREADED
        Core in use  :  SkylakeX
   Copyright (c) 2011-2014, The OpenBLAS Project


================================================================================

----- Orbital basis set information -----
Your calculation utilizes the basis: aug-cc-pVQZ 
    H, B-Ne : Obtained from the ccRepo (grant-hill.group.shef.ac.uk/ccrepo) Feb. 2017
              R. A. Kendall, T. H. Dunning, Jr., R. J. Harrison, J. Chem. Phys. 96, 6796 (1992)
         He : Obtained from the ccRepo (grant-hill.group.shef.ac.uk/ccrepo) Feb. 2017
              D. E. Woon, T. H. Dunning, Jr., J. Chem. Phys. 100, 2975 (1994)
  Li-Be, Na : Obtained from the ccRepo (grant-hill.group.shef.ac.uk/ccrepo) Feb. 2017
              B. P. Prascher, D. E. Woon, K. A. Peterson, T. H. Dunning, Jr., A. K. Wilson, Theor. Chem. Acc. 128, 69 (2011)
         Mg : Obtained from the Peterson Research Group Website (tyr0.chem.wsu.edu/~kipeters) Feb. 2017
              B. P. Prascher, D. E. Woon, K. A. Peterson, T. H. Dunning, Jr., A. K. Wilson, Theor. Chem. Acc. 128, 69 (2011)
      Al-Ar : Obtained from the ccRepo (grant-hill.group.shef.ac.uk/ccrepo) Feb. 2017
              D. E. Woon, T. H. Dunning, Jr., J. Chem. Phys. 98, 1358 (1993)
      Sc-Zn : Obtained from the ccRepo (grant-hill.group.shef.ac.uk/ccrepo) Feb. 2017
              N. B. Balabanov, K. A. Peterson, J. Chem. Phys. 123, 064107 (2005)
              N. B. Balabanov, K. A. Peterson, J. Chem. Phys. 125, 074110 (2006)
      Ga-Kr : Obtained from the ccRepo (grant-hill.group.shef.ac.uk/ccrepo) Feb. 2017
              A. K. Wilson, D. E. Woon, K. A. Peterson, T. H. Dunning, Jr., J. Chem. Phys. 110, 7667 (1999)

================================================================================
                                        WARNINGS
                       Please study these warnings very carefully!
================================================================================


INFO   : the flag for use of the SHARK integral package has been found!

================================================================================
                                       INPUT FILE
================================================================================
NAME = /scratch/BH-1.4-UHF-O_354/BH-1.4-UHF-O.inp
|  1> ! UHF aug-cc-pVQZ pal8 VeryTightSCF
|  2> 
|  3> %scf
|  4> 	STABPerform	True
|  5> 	STABRestartUHFifUnstable	True
|  6> end
|  7> 
|  8> *xyz 0 1
|  9>  B	0.0	0.0	0.0
| 10>  H	1.4	0.0	0.0
| 11> **                         ****END OF INPUT****
================================================================================

                       ****************************
                       * Single Point Calculation *
                       ****************************

---------------------------------
CARTESIAN COORDINATES (ANGSTROEM)
---------------------------------
  B      0.000000    0.000000    0.000000
  H      1.400000    0.000000    0.000000

----------------------------
CARTESIAN COORDINATES (A.U.)
----------------------------
  NO LB      ZA    FRAG     MASS         X           Y           Z
   0 B     5.0000    0    10.810    0.000000    0.000000    0.000000
   1 H     1.0000    0     1.008    2.645617    0.000000    0.000000

--------------------------------
INTERNAL COORDINATES (ANGSTROEM)
--------------------------------
 B      0   0   0     0.000000000000     0.00000000     0.00000000
 H      1   0   0     1.400000000000     0.00000000     0.00000000

---------------------------
INTERNAL COORDINATES (A.U.)
---------------------------
 B      0   0   0     0.000000000000     0.00000000     0.00000000
 H      1   0   0     2.645616587490     0.00000000     0.00000000

---------------------
BASIS SET INFORMATION
---------------------
There are 2 groups of distinct atoms

 Group   1 Type B   : 22s7p4d3f2g contracted to 6s5p4d3f2g pattern {991111/31111/1111/111/11}
 Group   2 Type H   : 7s4p3d2f contracted to 5s4p3d2f pattern {31111/1111/111/11}

Atom   0B    basis set group =>   1
Atom   1H    basis set group =>   2
--------------------------------------------------------------------------
WARNING: There was an error initializing an OpenFabrics device.

  Local host:   cnode12
  Local device: mlx5_0
--------------------------------------------------------------------------


           ************************************************************
           *        Program running with 8 parallel MPI-processes     *
           *              working on a common directory               *
           ************************************************************
------------------------------------------------------------------------------
                           ORCA GTO INTEGRAL CALCULATION
------------------------------------------------------------------------------
------------------------------------------------------------------------------
                   ___                                                        
                  /   \      - P O W E R E D   B Y -                         
                 /     \                                                     
                 |  |  |   _    _      __       _____    __    __             
                 |  |  |  | |  | |    /  \     |  _  \  |  |  /  |          
                  \  \/   | |  | |   /    \    | | | |  |  | /  /          
                 / \  \   | |__| |  /  /\  \   | |_| |  |  |/  /          
                |  |  |   |  __  | /  /__\  \  |    /   |      \           
                |  |  |   | |  | | |   __   |  |    \   |  |\   \          
                \     /   | |  | | |  |  |  |  | |\  \  |  | \   \       
                 \___/    |_|  |_| |__|  |__|  |_| \__\ |__|  \__/        
                                                                              
                      - O R C A' S   B I G   F R I E N D -                    
                                      &                                       
                       - I N T E G R A L  F E E D E R -                       
                                                                              
 v1 FN, 2020, v2 2021                                                         
------------------------------------------------------------------------------


Reading SHARK input file /scratch/BH-1.4-UHF-O_354/BH-1.4-UHF-O.SHARKINP.tmp ... ok
----------------------
SHARK INTEGRAL PACKAGE
----------------------

Number of atoms                             ...      2
Number of basis functions                   ...    126
Number of shells                            ...     34
Maximum angular momentum                    ...      4
Integral batch strategy                     ... SHARK/LIBINT Hybrid
RI-J (if used) integral strategy            ... SPLIT-RIJ (Revised 2003 algorithm where possible)
Printlevel                                  ...      1
Contraction scheme used                     ... SEGMENTED contraction
Coulomb Range Separation                    ... NOT USED
Exchange Range Separation                   ... NOT USED
Finite Nucleus Model                        ... NOT USED
Auxiliary Coulomb fitting basis             ... NOT available
Auxiliary J/K fitting basis                 ... NOT available
Auxiliary Correlation fitting basis         ... NOT available
Auxiliary 'external' fitting basis          ... NOT available
Integral threshold                          ...     1.000000e-12
Primitive cut-off                           ...     1.000000e-14
Primitive pair pre-selection threshold      ...     1.000000e-14

Calculating pre-screening integrals         ... done (  0.1 sec) Dimension = 34
Organizing shell pair data                  ... done (  0.0 sec)
Shell pair information
Total number of shell pairs                 ...       595
Shell pairs after pre-screening             ...       595
Total number of primitive shell pairs       ...      1563
Primitive shell pairs kept                  ...      1533
          la=0 lb=0:     66 shell pairs
          la=1 lb=0:     99 shell pairs
          la=1 lb=1:     45 shell pairs
          la=2 lb=0:     77 shell pairs
          la=2 lb=1:     63 shell pairs
          la=2 lb=2:     28 shell pairs
          la=3 lb=0:     55 shell pairs
          la=3 lb=1:     45 shell pairs
          la=3 lb=2:     35 shell pairs
          la=3 lb=3:     15 shell pairs
          la=4 lb=0:     22 shell pairs
          la=4 lb=1:     18 shell pairs
          la=4 lb=2:     14 shell pairs
          la=4 lb=3:     10 shell pairs
          la=4 lb=4:      3 shell pairs

Calculating one electron integrals          ... done (  0.0 sec)
Calculating Nuclear repulsion               ... done (  0.0 sec) ENN=      1.889918601071 Eh

SHARK setup successfully completed in   0.1 seconds

Maximum memory used throughout the entire GTOINT-calculation: 28.9 MB
[cnode12:270854] 7 more processes have sent help message help-mpi-btl-openib.txt / error in device init
[cnode12:270854] Set MCA parameter "orte_base_help_aggregate" to 0 to see all help / error messages
--------------------------------------------------------------------------
WARNING: There was an error initializing an OpenFabrics device.

  Local host:   cnode12
  Local device: mlx5_0
--------------------------------------------------------------------------


           ************************************************************
           *        Program running with 8 parallel MPI-processes     *
           *              working on a common directory               *
           ************************************************************
-------------------------------------------------------------------------------
                                 ORCA SCF
-------------------------------------------------------------------------------

------------
SCF SETTINGS
------------
Hamiltonian:
 Ab initio Hamiltonian  Method          .... Hartree-Fock(GTOs)


General Settings:
 Integral files         IntName         .... /scratch/BH-1.4-UHF-O_354/BH-1.4-UHF-O
 Hartree-Fock type      HFTyp           .... UHF
 Total Charge           Charge          ....    0
 Multiplicity           Mult            ....    1
 Number of Electrons    NEL             ....    6
 Basis Dimension        Dim             ....  126
 Nuclear Repulsion      ENuc            ....      1.8899186011 Eh

Convergence Acceleration:
 DIIS                   CNVDIIS         .... on
   Start iteration      DIISMaxIt       ....    12
   Startup error        DIISStart       ....  0.200000
   # of expansion vecs  DIISMaxEq       ....     5
   Bias factor          DIISBfac        ....   1.050
   Max. coefficient     DIISMaxC        ....  10.000
 Trust-Rad. Augm. Hess. CNVTRAH         .... auto
   Auto Start mean grad. ratio tolernc. ....  1.125000
   Auto Start start iteration           ....    20
   Auto Start num. interpolation iter.  ....    10
   Max. Number of Micro iterations      ....    16
   Max. Number of Macro iterations      .... Maxiter - #DIIS iter
   Number of Davidson start vectors     ....     2
   Converg. threshold I  (grad. norm)   ....   2.000e-06
   Converg. threshold II (energy diff.) ....   1.000e-09
   Grad. Scal. Fac. for Micro threshold ....   0.100
   Minimum threshold for Micro iter.    ....   0.010
   NR start threshold (gradient norm)   ....   0.001
   Initial trust radius                 ....   0.400
   Minimum AH scaling param. (alpha)    ....   1.000
   Maximum AH scaling param. (alpha)    .... 1000.000
   Orbital update algorithm             .... Taylor
   White noise on init. David. guess    .... on
   Maximum white noise                  ....   0.010
   Quad. conv. algorithm                .... NR
 SOSCF                  CNVSOSCF        .... off
 Level Shifting         CNVShift        .... on
   Level shift para.    LevelShift      ....    0.2500
   Turn off err/grad.   ShiftErr        ....    0.0010
 Zerner damping         CNVZerner       .... off
 Static damping         CNVDamp         .... on
   Fraction old density DampFac         ....    0.7000
   Max. Damping (<1)    DampMax         ....    0.9800
   Min. Damping (>=0)   DampMin         ....    0.0000
   Turn off err/grad.   DampErr         ....    0.1000
 Fernandez-Rico         CNVRico         .... off

SCF Procedure:
 Maximum # iterations   MaxIter         ....   125
 SCF integral mode      SCFMode         .... Direct
   Integral package                     .... SHARK and LIBINT hybrid scheme
 Reset frequency        DirectResetFreq ....    20
 Integral Threshold     Thresh          ....  1.000e-12 Eh
 Primitive CutOff       TCut            ....  1.000e-14 Eh

Convergence Tolerance:
 Convergence Check Mode ConvCheckMode   .... Total+1el-Energy
 Convergence forced     ConvForced      .... 0
 Energy Change          TolE            ....  1.000e-09 Eh
 1-El. energy change                    ....  1.000e-06 Eh
 DIIS Error             TolErr          ....  1.000e-08


Diagonalization of the overlap matrix:
Smallest eigenvalue                        ... 1.678e-04
Time for diagonalization                   ...    0.003 sec
Threshold for overlap eigenvalues          ... 1.000e-08
Number of eigenvalues below threshold      ... 0
Time for construction of square roots      ...    0.002 sec
Total time needed                          ...    0.005 sec

Time for model grid setup =    0.008 sec

------------------------------
INITIAL GUESS: MODEL POTENTIAL
------------------------------
Loading Hartree-Fock densities                     ... done
Calculating cut-offs                               ... done
Initializing the effective Hamiltonian             ... done
Setting up the integral package (SHARK)            ... done
Starting the Coulomb interaction                   ... done (   0.0 sec)
Reading the grid                                   ... done
Mapping shells                                     ... done
Starting the XC term evaluation                    ... done (   0.0 sec)
Transforming the Hamiltonian                       ... done (   0.0 sec)
Diagonalizing the Hamiltonian                      ... done (   0.0 sec)
Back transforming the eigenvectors                 ... done (   0.0 sec)
Now organizing SCF variables                       ... done
                      ------------------
                      INITIAL GUESS DONE (   0.0 sec)
                      ------------------
--------------
SCF ITERATIONS
--------------
ITER       Energy         Delta-E        Max-DP      RMS-DP      [F,P]     Damp
               ***  Starting incremental Fock matrix formation  ***
  0    -25.1133888776   0.000000000000 0.01822932  0.00022592  0.1056284 0.7000
  1    -25.1156945845  -0.002305706927 0.01306142  0.00017307  0.0770310 0.7000
                               ***Turning on DIIS***
  2    -25.1174420584  -0.001747473936 0.03082045  0.00042612  0.0557158 0.0000
  3    -25.1248351495  -0.007393091037 0.00308352  0.00005772  0.0056325 0.0000
  4    -25.1223588084   0.002476341098 0.00098204  0.00002174  0.0014036 0.0000
  5    -25.1222415814   0.000117227015 0.00113928  0.00002225  0.0004802 0.0000
  6    -25.1220448247   0.000196756666 0.00026332  0.00000515  0.0000623 0.0000
  7    -25.1220228076   0.000022017065 0.00005772  0.00000111  0.0000171 0.0000
  8    -25.1220222335   0.000000574155 0.00000814  0.00000015  0.0000037 0.0000
  9    -25.1220219009   0.000000332596 0.00000124  0.00000002  0.0000006 0.0000
 10    -25.1220219310  -0.000000030067 0.00000038  0.00000001  0.0000001 0.0000
                            ***DIIS convergence achieved***

               *****************************************************
               *                     SUCCESS                       *
               *           SCF CONVERGED AFTER  11 CYCLES          *
               *****************************************************


------------------------------------------------------------------------------
                          SCF STABILITY ANALYSIS                              
------------------------------------------------------------------------------


                       ****Iteration    0****

   Memory handling for direct AO based CIS:
   Memory per vector needed      ...     1 MB
   Memory needed                 ...     4 MB
   Memory available              ...  1024 MB
   Number of vectors per batch   ...  1024
   Number of batches             ...     1
   Time for densities:     0.001
   Using LibInt in JK Direct
[cnode12:270914] 7 more processes have sent help message help-mpi-btl-openib.txt / error in device init
[cnode12:270914] Set MCA parameter "orte_base_help_aggregate" to 0 to see all help / error messages
   Time for J+K (Direct):     1.932
   Time for Sigma-Completion:     0.002
   Lowest Energy          :     0.142380673122
   Maximum Energy change  :     0.197308154734 (vector 2)
   Maximum residual norm  :     0.025669204483

                       ****Iteration    1****
   Time for densities:     0.000
   Using LibInt in JK Direct
   Time for J+K (Direct):     0.958
   Time for Sigma-Completion:     0.001
   Lowest Energy          :    -0.023192838069
   Maximum Energy change  :     0.165573511191 (vector 1)
   Maximum residual norm  :     0.007700673604

                       ****Iteration    2****
   Time for densities:     0.000
   Using LibInt in JK Direct
   Time for J+K (Direct):     0.935
   Time for Sigma-Completion:     0.001
   Lowest Energy          :    -0.040625613175
   Maximum Energy change  :     0.017432775106 (vector 1)
   Maximum residual norm  :     0.000602243486

                       ****Iteration    3****
   Time for densities:     0.000
   Using LibInt in JK Direct
   Time for J+K (Direct):     0.966
   Time for Sigma-Completion:     0.001
   Lowest Energy          :    -0.042078226242
   Maximum Energy change  :     0.001452613067 (vector 0)
   Maximum residual norm  :     0.000089477038

      *** CONVERGENCE OF RESIDUAL NORM REACHED ***

----------------------------- 
SCF STABILITY ANALYSIS RESULT 
----------------------------- 

UHF/UKS->UHF/UKS - singlet - internal

   Root    Eigenvalue (au) 
     0      -0.042078 
     1      -0.042078 
     2       0.130765 

Stability Analysis indicates an UNSTABLE HF/KS wave function with SEVERAL negative eigenvalues.

Since this is UHF/UKS, we will restart the SCF using a new guess based on the eigenvector 
associated with the lowest eigenvalue. Because there is no guarantee that the restart     
will result in a stable solution, the user should check the stability of the resulting    
wave function in a separate calculation using the MOREAD guess feature.

Obtain new guess               ... done 

Total time for performing the stability analysis:     4.810sec

--------------------------
SCF ITERATIONS (restarted)
--------------------------
ITER       Energy         Delta-E        Max-DP      RMS-DP      [F,P]     Damp
               ***  Starting incremental Fock matrix formation  ***
  0    -25.1264380744   0.000000000000 0.00163634  0.00002720  0.0092506 0.7000
  1    -25.1265468766  -0.000108802253 0.00161546  0.00002629  0.0074386 0.7000
                               ***Turning on DIIS***
  2    -25.1266454514  -0.000098574738 0.00442680  0.00007375  0.0058264 0.0000
  3    -25.1267900259  -0.000144574549 0.00137168  0.00003214  0.0017136 0.0000
  4    -25.1270255855  -0.000235559614 0.00114692  0.00003354  0.0007742 0.0000
  5    -25.1270936071  -0.000068021565 0.00080547  0.00002101  0.0002294 0.0000
  6    -25.1271766651  -0.000083058029 0.00075053  0.00001879  0.0002256 0.0000
  7    -25.1272346177  -0.000057952621 0.00130040  0.00003234  0.0001932 0.0000
  8    -25.1272711020  -0.000036484261 0.00232642  0.00005798  0.0001433 0.0000
  9    -25.1272373296   0.000033772433 0.00052755  0.00001270  0.0000646 0.0000
 10    -25.1272366637   0.000000665923 0.00039344  0.00001029  0.0000380 0.0000
 11    -25.1272823979  -0.000045734244 0.00010703  0.00000248  0.0000179 0.0000
 12    -25.1272680698   0.000014328139 0.00007916  0.00000189  0.0000067 0.0000
 13    -25.1272647754   0.000003294313 0.00000172  0.00000005  0.0000010 0.0000
 14    -25.1272647479   0.000000027541 0.00000142  0.00000004  0.0000004 0.0000
 15    -25.1272646203   0.000000127585 0.00000014  0.00000000  0.0000000 0.0000
                            ***DIIS convergence achieved***

               *****************************************************
               *                     SUCCESS                       *
               *           SCF CONVERGED AFTER  16 CYCLES          *
               *****************************************************


----------------
TOTAL SCF ENERGY
----------------

Total Energy       :          -25.12726463 Eh            -683.74763 eV

Components:
Nuclear Repulsion  :            1.88991860 Eh              51.42730 eV
Electronic Energy  :          -27.01718323 Eh            -735.17493 eV
One Electron Energy:          -36.68714275 Eh            -998.30791 eV
Two Electron Energy:            9.66995952 Eh             263.13298 eV

Virial components:
Potential Energy   :          -50.11701399 Eh           -1363.75328 eV
Kinetic Energy     :           24.98974937 Eh             680.00565 eV
Virial Ratio       :            2.00550287


---------------
SCF CONVERGENCE
---------------

  Last Energy change         ...   -6.4222e-09  Tolerance :   1.0000e-09
  Last MAX-Density change    ...    4.6593e-08  Tolerance :   1.0000e-08
  Last RMS-Density change    ...    1.0702e-09  Tolerance :   1.0000e-09
  Last DIIS Error            ...    1.6933e-08  Tolerance :   1.0000e-08

             **** THE GBW FILE WAS UPDATED (/scratch/BH-1.4-UHF-O_354/BH-1.4-UHF-O.gbw) ****
             **** DENSITY /scratch/BH-1.4-UHF-O_354/BH-1.4-UHF-O.scfp WAS UPDATED ****
             **** ENERGY FILE WAS UPDATED (/scratch/BH-1.4-UHF-O_354/BH-1.4-UHF-O.en.tmp) ****

     --------------------------------------------------------------------
                                      WARNING
     A stability analysis of the first UHF/UKS SCF solution was performed
     and an instability detected. The result was used as a guess for
     a second SCF, which has converged. There is no guarantee that the
     current solution is stable - it is up to you to rerun the stability
     analysis using the now stored solution as a guess and verify.
     --------------------------------------------------------------------

----------------------
UHF SPIN CONTAMINATION
----------------------

Expectation value of <S**2>     :     0.436313
Ideal value S*(S+1) for S=0.0   :     0.000000
Deviation                       :     0.436313

             **** THE GBW FILE WAS UPDATED (/scratch/BH-1.4-UHF-O_354/BH-1.4-UHF-O.gbw) ****
             **** DENSITY /scratch/BH-1.4-UHF-O_354/BH-1.4-UHF-O.scfp WAS UPDATED ****
----------------
ORBITAL ENERGIES
----------------
                 SPIN UP ORBITALS
  NO   OCC          E(Eh)            E(eV) 
   0   1.0000      -7.697808      -209.4680 
   1   1.0000      -0.605631       -16.4800 
   2   1.0000      -0.370173       -10.0729 
   3   0.0000       0.024480         0.6661 
   4   0.0000       0.028882         0.7859 
   5   0.0000       0.033573         0.9136 
   6   0.0000       0.045826         1.2470 
   7   0.0000       0.079093         2.1522 
   8   0.0000       0.084177         2.2906 
   9   0.0000       0.110378         3.0035 
  10   0.0000       0.136216         3.7066 
  11   0.0000       0.137538         3.7426 
  12   0.0000       0.146081         3.9751 
  13   0.0000       0.146131         3.9764 
  14   0.0000       0.148234         4.0336 
  15   0.0000       0.196240         5.3400 
  16   0.0000       0.253428         6.8961 
  17   0.0000       0.272239         7.4080 
  18   0.0000       0.273440         7.4407 
  19   0.0000       0.310982         8.4622 
  20   0.0000       0.312816         8.5122 
  21   0.0000       0.376112        10.2345 
  22   0.0000       0.400101        10.8873 
  23   0.0000       0.459734        12.5100 
  24   0.0000       0.459737        12.5101 
  25   0.0000       0.462427        12.5833 
  26   0.0000       0.462428        12.5833 
  27   0.0000       0.478956        13.0331 
  28   0.0000       0.482087        13.1183 
  29   0.0000       0.501427        13.6445 
  30   0.0000       0.501684        13.6515 
  31   0.0000       0.533046        14.5049 
  32   0.0000       0.548111        14.9149 
  33   0.0000       0.577324        15.7098 
  34   0.0000       0.579950        15.7812 
  35   0.0000       0.730801        19.8861 
  36   0.0000       0.784386        21.3442 
  37   0.0000       0.786169        21.3927 
  38   0.0000       0.806803        21.9542 
  39   0.0000       0.806823        21.9548 
  40   0.0000       0.816746        22.2248 
  41   0.0000       1.014058        27.5939 
  42   0.0000       1.014726        27.6121 
  43   0.0000       1.163237        31.6533 
  44   0.0000       1.201853        32.7041 
  45   0.0000       1.205269        32.7970 
  46   0.0000       1.335116        36.3304 
  47   0.0000       1.365864        37.1671 
  48   0.0000       1.365864        37.1671 
  49   0.0000       1.371703        37.3259 
  50   0.0000       1.371703        37.3259 
  51   0.0000       1.388146        37.7734 
  52   0.0000       1.388227        37.7756 
  53   0.0000       1.419476        38.6259 
  54   0.0000       1.420816        38.6624 
  55   0.0000       1.426731        38.8233 
  56   0.0000       1.438403        39.1409 
  57   0.0000       1.438986        39.1568 
  58   0.0000       1.456303        39.6280 
  59   0.0000       1.456666        39.6379 
  60   0.0000       1.526461        41.5371 
  61   0.0000       1.556651        42.3586 
  62   0.0000       1.562284        42.5119 
  63   0.0000       1.602442        43.6047 
  64   0.0000       1.602497        43.6062 
  65   0.0000       1.667141        45.3652 
  66   0.0000       1.844065        50.1796 
  67   0.0000       1.844102        50.1806 
  68   0.0000       1.851385        50.3788 
  69   0.0000       1.854563        50.4652 
  70   0.0000       1.943899        52.8962 
  71   0.0000       2.111573        57.4588 
  72   0.0000       2.111578        57.4590 
  73   0.0000       2.171398        59.0867 
  74   0.0000       2.175327        59.1936 
  75   0.0000       2.303310        62.6763 
  76   0.0000       2.422086        65.9083 
  77   0.0000       2.872751        78.1715 
  78   0.0000       2.872763        78.1719 
  79   0.0000       3.002221        81.6946 
  80   0.0000       3.005069        81.7721 
  81   0.0000       3.222746        87.6954 
  82   0.0000       3.303311        89.8877 
  83   0.0000       3.306760        89.9815 
  84   0.0000       3.374728        91.8310 
  85   0.0000       3.861447       105.0753 
  86   0.0000       3.868613       105.2703 
  87   0.0000       3.921634       106.7131 
  88   0.0000       3.921634       106.7131 
  89   0.0000       3.940957       107.2389 
  90   0.0000       3.940960       107.2390 
  91   0.0000       3.984771       108.4311 
  92   0.0000       3.984818       108.4324 
  93   0.0000       4.091888       111.3459 
  94   0.0000       4.091888       111.3459 
  95   0.0000       4.106177       111.7348 
  96   0.0000       4.109954       111.8375 
  97   0.0000       4.111563       111.8813 
  98   0.0000       4.113551       111.9354 
  99   0.0000       4.117861       112.0527 
 100   0.0000       4.168896       113.4414 
 101   0.0000       4.169324       113.4531 
 102   0.0000       4.273791       116.2958 
 103   0.0000       4.280872       116.4884 
 104   0.0000       4.409561       119.9903 
 105   0.0000       4.810157       130.8910 
 106   0.0000       4.987682       135.7217 
 107   0.0000       4.993804       135.8883 
 108   0.0000       5.475870       149.0060 
 109   0.0000       6.674834       181.6315 
 110   0.0000       6.674834       181.6315 
 111   0.0000       6.983326       190.0260 
 112   0.0000       6.983326       190.0260 
 113   0.0000       7.448680       202.6889 
 114   0.0000       7.451019       202.7525 
 115   0.0000       7.512544       204.4267 
 116   0.0000       8.103779       220.5150 
 117   0.0000       8.560598       232.9457 
 118   0.0000       8.561932       232.9820 
 119   0.0000       8.662701       235.7241 
 120   0.0000       8.662702       235.7241 
 121   0.0000       9.212909       250.6960 
 122   0.0000       9.214133       250.7293 
 123   0.0000       9.392418       255.5807 
 124   0.0000       9.972433       271.3637 
 125   0.0000      14.859666       404.3521 

                 SPIN DOWN ORBITALS
  NO   OCC          E(Eh)            E(eV) 
   0   1.0000      -7.697808      -209.4680 
   1   1.0000      -0.605631       -16.4800 
   2   1.0000      -0.370173       -10.0729 
   3   0.0000       0.024480         0.6661 
   4   0.0000       0.028882         0.7859 
   5   0.0000       0.033573         0.9136 
   6   0.0000       0.045826         1.2470 
   7   0.0000       0.079093         2.1522 
   8   0.0000       0.084177         2.2906 
   9   0.0000       0.110378         3.0035 
  10   0.0000       0.136216         3.7066 
  11   0.0000       0.137538         3.7426 
  12   0.0000       0.146081         3.9751 
  13   0.0000       0.146131         3.9764 
  14   0.0000       0.148234         4.0336 
  15   0.0000       0.196240         5.3400 
  16   0.0000       0.253428         6.8961 
  17   0.0000       0.272239         7.4080 
  18   0.0000       0.273440         7.4407 
  19   0.0000       0.310982         8.4622 
  20   0.0000       0.312816         8.5122 
  21   0.0000       0.376112        10.2345 
  22   0.0000       0.400101        10.8873 
  23   0.0000       0.459734        12.5100 
  24   0.0000       0.459737        12.5101 
  25   0.0000       0.462427        12.5833 
  26   0.0000       0.462428        12.5833 
  27   0.0000       0.478956        13.0331 
  28   0.0000       0.482087        13.1183 
  29   0.0000       0.501427        13.6445 
  30   0.0000       0.501684        13.6515 
  31   0.0000       0.533046        14.5049 
  32   0.0000       0.548111        14.9149 
  33   0.0000       0.577324        15.7098 
  34   0.0000       0.579950        15.7812 
  35   0.0000       0.730801        19.8861 
  36   0.0000       0.784386        21.3442 
  37   0.0000       0.786169        21.3927 
  38   0.0000       0.806803        21.9542 
  39   0.0000       0.806823        21.9548 
  40   0.0000       0.816746        22.2248 
  41   0.0000       1.014058        27.5939 
  42   0.0000       1.014726        27.6121 
  43   0.0000       1.163237        31.6533 
  44   0.0000       1.201853        32.7041 
  45   0.0000       1.205269        32.7970 
  46   0.0000       1.335116        36.3304 
  47   0.0000       1.365864        37.1671 
  48   0.0000       1.365864        37.1671 
  49   0.0000       1.371703        37.3259 
  50   0.0000       1.371703        37.3259 
  51   0.0000       1.388146        37.7734 
  52   0.0000       1.388227        37.7756 
  53   0.0000       1.419476        38.6259 
  54   0.0000       1.420816        38.6624 
  55   0.0000       1.426731        38.8233 
  56   0.0000       1.438403        39.1409 
  57   0.0000       1.438986        39.1568 
  58   0.0000       1.456303        39.6280 
  59   0.0000       1.456666        39.6379 
  60   0.0000       1.526461        41.5371 
  61   0.0000       1.556651        42.3586 
  62   0.0000       1.562284        42.5119 
  63   0.0000       1.602442        43.6047 
  64   0.0000       1.602497        43.6062 
  65   0.0000       1.667141        45.3652 
  66   0.0000       1.844065        50.1796 
  67   0.0000       1.844102        50.1806 
  68   0.0000       1.851385        50.3788 
  69   0.0000       1.854563        50.4652 
  70   0.0000       1.943899        52.8962 
  71   0.0000       2.111573        57.4588 
  72   0.0000       2.111578        57.4590 
  73   0.0000       2.171398        59.0867 
  74   0.0000       2.175327        59.1936 
  75   0.0000       2.303310        62.6763 
  76   0.0000       2.422086        65.9083 
  77   0.0000       2.872751        78.1715 
  78   0.0000       2.872763        78.1719 
  79   0.0000       3.002221        81.6946 
  80   0.0000       3.005069        81.7721 
  81   0.0000       3.222746        87.6954 
  82   0.0000       3.303311        89.8877 
  83   0.0000       3.306760        89.9815 
  84   0.0000       3.374728        91.8310 
  85   0.0000       3.861447       105.0753 
  86   0.0000       3.868613       105.2703 
  87   0.0000       3.921634       106.7131 
  88   0.0000       3.921634       106.7131 
  89   0.0000       3.940957       107.2389 
  90   0.0000       3.940960       107.2390 
  91   0.0000       3.984771       108.4311 
  92   0.0000       3.984818       108.4324 
  93   0.0000       4.091888       111.3459 
  94   0.0000       4.091888       111.3459 
  95   0.0000       4.106177       111.7348 
  96   0.0000       4.109954       111.8375 
  97   0.0000       4.111563       111.8813 
  98   0.0000       4.113551       111.9354 
  99   0.0000       4.117861       112.0527 
 100   0.0000       4.168896       113.4414 
 101   0.0000       4.169324       113.4531 
 102   0.0000       4.273791       116.2958 
 103   0.0000       4.280872       116.4884 
 104   0.0000       4.409561       119.9903 
 105   0.0000       4.810157       130.8910 
 106   0.0000       4.987682       135.7217 
 107   0.0000       4.993804       135.8883 
 108   0.0000       5.475870       149.0060 
 109   0.0000       6.674834       181.6315 
 110   0.0000       6.674834       181.6315 
 111   0.0000       6.983326       190.0260 
 112   0.0000       6.983326       190.0260 
 113   0.0000       7.448680       202.6889 
 114   0.0000       7.451019       202.7525 
 115   0.0000       7.512544       204.4267 
 116   0.0000       8.103779       220.5150 
 117   0.0000       8.560598       232.9457 
 118   0.0000       8.561932       232.9820 
 119   0.0000       8.662701       235.7241 
 120   0.0000       8.662702       235.7241 
 121   0.0000       9.212909       250.6960 
 122   0.0000       9.214133       250.7293 
 123   0.0000       9.392418       255.5807 
 124   0.0000       9.972433       271.3637 
 125   0.0000      14.859666       404.3521 

                    ********************************
                    * MULLIKEN POPULATION ANALYSIS *
                    ********************************

--------------------------------------------
MULLIKEN ATOMIC CHARGES AND SPIN POPULATIONS
--------------------------------------------
   0 B :    0.147161   -0.000000
   1 H :   -0.147161    0.000000
Sum of atomic charges         :   -0.0000000
Sum of atomic spin populations:   -0.0000000

-----------------------------------------------------
MULLIKEN REDUCED ORBITAL CHARGES AND SPIN POPULATIONS
-----------------------------------------------------
CHARGE
  0 B s       :     3.644795  s :     3.644795
      pz      :     0.192499  p :     1.167680
      px      :     0.923223
      py      :     0.051958
      dz2     :     0.010228  d :     0.038317
      dxz     :     0.002097
      dyz     :     0.000225
      dx2y2   :     0.025201
      dxy     :     0.000566
      f0      :     0.000029  f :     0.001756
      f+1     :     0.000626
      f-1     :     0.000003
      f+2     :     0.000047
      f-2     :     0.000006
      f+3     :     0.001027
      f-3     :     0.000018
      g0      :     0.000042  g :     0.000291
      g+1     :     0.000004
      g-1     :     0.000000
      g+2     :     0.000092
      g-2     :     0.000000
      g+3     :     0.000003
      g-3     :     0.000000
      g+4     :     0.000148
      g-4     :     0.000002
  1 H s       :     1.126397  s :     1.126397
      pz      :     0.001441  p :     0.019518
      px      :     0.017688
      py      :     0.000389
      dz2     :     0.000343  d :     0.001087
      dxz     :    -0.000211
      dyz     :     0.000001
      dx2y2   :     0.001011
      dxy     :    -0.000057
      f0      :     0.000010  f :     0.000159
      f+1     :     0.000045
      f-1     :     0.000001
      f+2     :     0.000017
      f-2     :     0.000000
      f+3     :     0.000078
      f-3     :     0.000007

SPIN
  0 B s       :    -0.000000  s :    -0.000000
      pz      :     0.000000  p :    -0.000000
      px      :    -0.000000
      py      :     0.000000
      dz2     :    -0.000000  d :    -0.000000
      dxz     :    -0.000000
      dyz     :    -0.000000
      dx2y2   :    -0.000000
      dxy     :    -0.000000
      f0      :    -0.000000  f :    -0.000000
      f+1     :    -0.000000
      f-1     :    -0.000000
      f+2     :    -0.000000
      f-2     :     0.000000
      f+3     :    -0.000000
      f-3     :    -0.000000
      g0      :    -0.000000  g :    -0.000000
      g+1     :     0.000000
      g-1     :    -0.000000
      g+2     :    -0.000000
      g-2     :    -0.000000
      g+3     :     0.000000
      g-3     :     0.000000
      g+4     :    -0.000000
      g-4     :    -0.000000
  1 H s       :     0.000000  s :     0.000000
      pz      :    -0.000000  p :     0.000000
      px      :     0.000000
      py      :    -0.000000
      dz2     :     0.000000  d :     0.000000
      dxz     :    -0.000000
      dyz     :    -0.000000
      dx2y2   :     0.000000
      dxy     :    -0.000000
      f0      :    -0.000000  f :    -0.000000
      f+1     :    -0.000000
      f-1     :    -0.000000
      f+2     :    -0.000000
      f-2     :     0.000000
      f+3     :    -0.000000
      f-3     :    -0.000000


                     *******************************
                     * LOEWDIN POPULATION ANALYSIS *
                     *******************************

-------------------------------------------
LOEWDIN ATOMIC CHARGES AND SPIN POPULATIONS
-------------------------------------------
   0 B :    0.427196   -0.000000
   1 H :   -0.427196    0.000000

----------------------------------------------------
LOEWDIN REDUCED ORBITAL CHARGES AND SPIN POPULATIONS
----------------------------------------------------
CHARGE
  0 B s       :     3.172939  s :     3.172939
      pz      :     0.153867  p :     1.296729
      px      :     1.101331
      py      :     0.041531
      dz2     :     0.019864  d :     0.081608
      dxz     :     0.005514
      dyz     :     0.000204
      dx2y2   :     0.054538
      dxy     :     0.001488
      f0      :     0.000034  f :     0.016377
      f+1     :     0.006071
      f-1     :     0.000002
      f+2     :     0.000056
      f-2     :     0.000010
      f+3     :     0.010182
      f-3     :     0.000023
      g0      :     0.000715  g :     0.005152
      g+1     :     0.000021
      g-1     :     0.000000
      g+2     :     0.001591
      g-2     :     0.000001
      g+3     :     0.000017
      g-3     :     0.000000
      g+4     :     0.002797
      g-4     :     0.000009
  1 H s       :     0.993147  s :     0.993147
      pz      :     0.016648  p :     0.301425
      px      :     0.280283
      py      :     0.004494
      dz2     :     0.021173  d :     0.104781
      dxz     :     0.014344
      dyz     :     0.000011
      dx2y2   :     0.065380
      dxy     :     0.003872
      f0      :     0.002039  f :     0.027844
      f+1     :     0.007730
      f-1     :     0.000093
      f+2     :     0.003397
      f-2     :     0.000007
      f+3     :     0.013203
      f-3     :     0.001374

SPIN
  0 B s       :    -0.000000  s :    -0.000000
      pz      :    -0.000000  p :    -0.000000
      px      :    -0.000000
      py      :    -0.000000
      dz2     :    -0.000000  d :    -0.000000
      dxz     :    -0.000000
      dyz     :    -0.000000
      dx2y2   :    -0.000000
      dxy     :     0.000000
      f0      :    -0.000000  f :     0.000000
      f+1     :     0.000000
      f-1     :    -0.000000
      f+2     :    -0.000000
      f-2     :     0.000000
      f+3     :     0.000000
      f-3     :    -0.000000
      g0      :     0.000000  g :     0.000000
      g+1     :    -0.000000
      g-1     :     0.000000
      g+2     :     0.000000
      g-2     :     0.000000
      g+3     :    -0.000000
      g-3     :     0.000000
      g+4     :     0.000000
      g-4     :     0.000000
  1 H s       :     0.000000  s :     0.000000
      pz      :    -0.000000  p :    -0.000000
      px      :     0.000000
      py      :    -0.000000
      dz2     :    -0.000000  d :    -0.000000
      dxz     :    -0.000000
      dyz     :    -0.000000
      dx2y2   :    -0.000000
      dxy     :    -0.000000
      f0      :    -0.000000  f :     0.000000
      f+1     :    -0.000000
      f-1     :     0.000000
      f+2     :     0.000000
      f-2     :    -0.000000
      f+3     :     0.000000
      f-3     :    -0.000000


                      *****************************
                      * MAYER POPULATION ANALYSIS *
                      *****************************

  NA   - Mulliken gross atomic population
  ZA   - Total nuclear charge
  QA   - Mulliken gross atomic charge
  VA   - Mayer's total valence
  BVA  - Mayer's bonded valence
  FA   - Mayer's free valence

  ATOM       NA         ZA         QA         VA         BVA        FA
  0 B      4.8528     5.0000     0.1472     1.7616     0.9282     0.8334
  1 H      1.1472     1.0000    -0.1472     0.9335     0.9282     0.0052

  Mayer bond orders larger than 0.100000
B(  0-B ,  1-H ) :   0.9282 

-------
TIMINGS
-------

Total SCF time: 0 days 0 hours 0 min 12 sec 

Total time                  ....      12.043 sec
Sum of individual times     ....      11.845 sec  ( 98.4%)

Fock matrix formation       ....       6.717 sec  ( 55.8%)
Diagonalization             ....       0.175 sec  (  1.5%)
Density matrix formation    ....       0.007 sec  (  0.1%)
Population analysis         ....       0.006 sec  (  0.0%)
Initial guess               ....       0.010 sec  (  0.1%)
Orbital Transformation      ....       0.000 sec  (  0.0%)
Orbital Orthonormalization  ....       0.000 sec  (  0.0%)
DIIS solution               ....       0.113 sec  (  0.9%)
SCF Stability Analysis      ....       4.810 sec  ( 39.9%)

Maximum memory used throughout the entire SCF-calculation: 228.7 MB

-------------------------   --------------------
FINAL SINGLE POINT ENERGY       -25.127264626742
-------------------------   --------------------


                            ***************************************
                            *     ORCA property calculations      *
                            ***************************************

                                    ---------------------
                                    Active property flags
                                    ---------------------
   (+) Dipole Moment


------------------------------------------------------------------------------
                       ORCA ELECTRIC PROPERTIES CALCULATION
------------------------------------------------------------------------------

Dipole Moment Calculation                       ... on
Quadrupole Moment Calculation                   ... off
Polarizability Calculation                      ... off
GBWName                                         ... /scratch/BH-1.4-UHF-O_354/BH-1.4-UHF-O.gbw
Electron density file                           ... /scratch/BH-1.4-UHF-O_354/BH-1.4-UHF-O.scfp
The origin for moment calculation is the CENTER OF MASS  = ( 0.225654,  0.000000  0.000000)

-------------
DIPOLE MOMENT
-------------
                                X             Y             Z
Electronic contribution:     -0.97758       0.00000       0.00000
Nuclear contribution   :      1.29169       0.00000       0.00000
                        -----------------------------------------
Total Dipole Moment    :      0.31411       0.00000       0.00000
                        -----------------------------------------
Magnitude (a.u.)       :      0.31411
Magnitude (Debye)      :      0.79840



--------------------
Rotational spectrum 
--------------------
 
Rotational constants in cm-1:     0.000000     9.328216     9.328216 
Rotational constants in MHz :     0.000000 279652.877368 279652.877368 

 Dipole components along the rotational axes: 
x,y,z [a.u.] :     0.314108     0.000000     0.000000 
x,y,z [Debye]:     0.798399     0.000000     0.000000 

 
--------------------------------------------------------------------------
WARNING: There was an error initializing an OpenFabrics device.

  Local host:   cnode12
  Local device: mlx5_0
--------------------------------------------------------------------------
[cnode12:271207] 7 more processes have sent help message help-mpi-btl-openib.txt / error in device init
[cnode12:271207] Set MCA parameter "orte_base_help_aggregate" to 0 to see all help / error messages

Timings for individual modules:

Sum of individual times         ...       13.032 sec (=   0.217 min)
GTO integral calculation        ...        0.557 sec (=   0.009 min)   4.3 %
SCF iterations                  ...       12.475 sec (=   0.208 min)  95.7 %
                             ****ORCA TERMINATED NORMALLY****
TOTAL RUN TIME: 0 days 0 hours 0 minutes 13 seconds 466 msec

Sender: Unischeduler System <lcz@mgt01>
Subject: Job 133900: <#!/bin/bash
#BSUB -J intel
#BSUB -o BH-1.4-UHF-O.out
#BSUB -n 8
#BSUB -q cqueue
export LD_LIBRARY_PATH=/apps/software/openmpi-4.1.1/lib:/apps/software/orca_5_0_0:$LD_LIBRARY_PATH
export PATH=/apps/software/openmpi-4.1.1/bin:/apps/software/orca_5_0_0:$PATH
mkdir /scratch/BH-1.4-UHF-O_354
scp $USER@mgt01:/apps/users/lcz/exe13/UMP2/BH-1.4-UHF-O.inp /scratch/BH-1.4-UHF-O_354
/apps/software/orca_5_0_0/orca /scratch/BH-1.4-UHF-O_354/BH-1.4-UHF-O.inp >& BH-1.4-UHF-O.out
scp /scratch/BH-1.4-UHF-O_354/*.gbw $USER@mgt01:/apps/users/lcz/exe13/UMP2
scp /scratch/BH-1.4-UHF-O_354/*.xyz $USER@mgt01:/apps/users/lcz/exe13/UMP2
scp /scratch/BH-1.4-UHF-O_354/*.trj $USER@mgt01:/apps/users/lcz/exe13/UMP2> Exited

Job <#!/bin/bash
#BSUB -J intel
#BSUB -o BH-1.4-UHF-O.out
#BSUB -n 8
#BSUB -q cqueue
export LD_LIBRARY_PATH=/apps/software/openmpi-4.1.1/lib:/apps/software/orca_5_0_0:$LD_LIBRARY_PATH
export PATH=/apps/software/openmpi-4.1.1/bin:/apps/software/orca_5_0_0:$PATH
mkdir /scratch/BH-1.4-UHF-O_354
scp $USER@mgt01:/apps/users/lcz/exe13/UMP2/BH-1.4-UHF-O.inp /scratch/BH-1.4-UHF-O_354
/apps/software/orca_5_0_0/orca /scratch/BH-1.4-UHF-O_354/BH-1.4-UHF-O.inp >& BH-1.4-UHF-O.out
scp /scratch/BH-1.4-UHF-O_354/*.gbw $USER@mgt01:/apps/users/lcz/exe13/UMP2
scp /scratch/BH-1.4-UHF-O_354/*.xyz $USER@mgt01:/apps/users/lcz/exe13/UMP2
scp /scratch/BH-1.4-UHF-O_354/*.trj $USER@mgt01:/apps/users/lcz/exe13/UMP2> was submitted from host <mgt01> by user <lcz>.
Job was executed on host(s) <8*cnode12>, in queue <cqueue>, as user <lcz>.
</apps/users/lcz> was used as the home directory.
</apps/users/lcz/exe13/UMP2> was used as the working directory.
Started at 2022-05-22 11:51:27
Results reported at 2022-05-22 11:51:42

Your job looked like:

------------------------------------------------------------
# User input
#!/bin/bash
#BSUB -J intel
#BSUB -o BH-1.4-UHF-O.out
#BSUB -n 8
#BSUB -q cqueue
export LD_LIBRARY_PATH=/apps/software/openmpi-4.1.1/lib:/apps/software/orca_5_0_0:$LD_LIBRARY_PATH
export PATH=/apps/software/openmpi-4.1.1/bin:/apps/software/orca_5_0_0:$PATH
mkdir /scratch/BH-1.4-UHF-O_354
scp $USER@mgt01:/apps/users/lcz/exe13/UMP2/BH-1.4-UHF-O.inp /scratch/BH-1.4-UHF-O_354
/apps/software/orca_5_0_0/orca /scratch/BH-1.4-UHF-O_354/BH-1.4-UHF-O.inp >& BH-1.4-UHF-O.out
scp /scratch/BH-1.4-UHF-O_354/*.gbw $USER@mgt01:/apps/users/lcz/exe13/UMP2
scp /scratch/BH-1.4-UHF-O_354/*.xyz $USER@mgt01:/apps/users/lcz/exe13/UMP2
scp /scratch/BH-1.4-UHF-O_354/*.trj $USER@mgt01:/apps/users/lcz/exe13/UMP2
------------------------------------------------------------

Exited with exit code 1.

Resource usage summary:

    CPU time   :           67.81 sec.
    Max Memory :              1239 MB
    Max Processes  :              13


The output (if any) follows:

/scratch/BH-1.4-UHF-O_354/*.xyz: No such file or directory
/scratch/BH-1.4-UHF-O_354/*.trj: No such file or directory
