 Entering Gaussian System, Link 0=/apps/software/g16/g16
 Initial command:
 /apps/software/g16/l1.exe "/scratch/Gau-109654.inp" -scrdir="/scratch/"
 Entering Link 1 = /apps/software/g16/l1.exe PID=    109655.
  
 Copyright (c) 1988,1990,1992,1993,1995,1998,2003,2009,2016,
            Gaussian, Inc.  All Rights Reserved.
  
 This is part of the Gaussian(R) 16 program.  It is based on
 the Gaussian(R) 09 system (copyright 2009, Gaussian, Inc.),
 the Gaussian(R) 03 system (copyright 2003, Gaussian, Inc.),
 the Gaussian(R) 98 system (copyright 1998, Gaussian, Inc.),
 the Gaussian(R) 94 system (copyright 1995, Gaussian, Inc.),
 the Gaussian 92(TM) system (copyright 1992, Gaussian, Inc.),
 the Gaussian 90(TM) system (copyright 1990, Gaussian, Inc.),
 the Gaussian 88(TM) system (copyright 1988, Gaussian, Inc.),
 the Gaussian 86(TM) system (copyright 1986, Carnegie Mellon
 University), and the Gaussian 82(TM) system (copyright 1983,
 Carnegie Mellon University). Gaussian is a federally registered
 trademark of Gaussian, Inc.
  
 This software contains proprietary and confidential information,
 including trade secrets, belonging to Gaussian, Inc.
  
 This software is provided under written license and may be
 used, copied, transmitted, or stored only in accord with that
 written license.
  
 The following legend is applicable only to US Government
 contracts under FAR:
  
                    RESTRICTED RIGHTS LEGEND
  
 Use, reproduction and disclosure by the US Government is
 subject to restrictions as set forth in subparagraphs (a)
 and (c) of the Commercial Computer Software - Restricted
 Rights clause in FAR 52.227-19.
  
 Gaussian, Inc.
 340 Quinnipiac St., Bldg. 40, Wallingford CT 06492
  
  
 ---------------------------------------------------------------
 Warning -- This program may not be used in any manner that
 competes with the business of Gaussian, Inc. or will provide
 assistance to any competitor of Gaussian, Inc.  The licensee
 of this program is prohibited from giving any competitor of
 Gaussian, Inc. access to this program.  By using this program,
 the user acknowledges that Gaussian, Inc. is engaged in the
 business of creating and licensing software in the field of
 computational chemistry and represents and warrants to the
 licensee that it is not a competitor of Gaussian, Inc. and that
 it will not use this program in any manner prohibited above.
 ---------------------------------------------------------------
  

 Cite this work as:
 Gaussian 16, Revision A.03,
 M. J. Frisch, G. W. Trucks, H. B. Schlegel, G. E. Scuseria, 
 M. A. Robb, J. R. Cheeseman, G. Scalmani, V. Barone, 
 G. A. Petersson, H. Nakatsuji, X. Li, M. Caricato, A. V. Marenich, 
 J. Bloino, B. G. Janesko, R. Gomperts, B. Mennucci, H. P. Hratchian, 
 J. V. Ortiz, A. F. Izmaylov, J. L. Sonnenberg, D. Williams-Young, 
 F. Ding, F. Lipparini, F. Egidi, J. Goings, B. Peng, A. Petrone, 
 T. Henderson, D. Ranasinghe, V. G. Zakrzewski, J. Gao, N. Rega, 
 G. Zheng, W. Liang, M. Hada, M. Ehara, K. Toyota, R. Fukuda, 
 J. Hasegawa, M. Ishida, T. Nakajima, Y. Honda, O. Kitao, H. Nakai, 
 T. Vreven, K. Throssell, J. A. Montgomery, Jr., J. E. Peralta, 
 F. Ogliaro, M. J. Bearpark, J. J. Heyd, E. N. Brothers, K. N. Kudin, 
 V. N. Staroverov, T. A. Keith, R. Kobayashi, J. Normand, 
 K. Raghavachari, A. P. Rendell, J. C. Burant, S. S. Iyengar, 
 J. Tomasi, M. Cossi, J. M. Millam, M. Klene, C. Adamo, R. Cammi, 
 J. W. Ochterski, R. L. Martin, K. Morokuma, O. Farkas, 
 J. B. Foresman, and D. J. Fox, Gaussian, Inc., Wallingford CT, 2016.
 
 ******************************************
 Gaussian 16:  ES64L-G16RevA.03 25-Dec-2016
                22-May-2022 
 ******************************************
 %oldchk=BH-1.1-UHF-G.chk
 %chk=BH-1.1-UMP2-G.chk
 Copying data from "BH-1.1-UHF-G.chk" to current chk file "BH-1.1-UMP2-G.chk"
 IOpt=  2 FromEx=T IUOpen= 4 IOptOp= 5 NList=   0 IFRang= 0 IUIn= 4 IUOut= 2.
 ------------------------------------
 #p UHF/aug-cc-pVQZ MP2=FC guess=read
 ------------------------------------
 1/38=1,172=1/1;
 2/12=2,17=6,18=5,40=1/2;
 3/5=16,6=2,7=10,11=2,25=1,30=1,116=2/1,2,3;
 4/5=1/1;
 5/5=2,38=6/2;
 8/10=1/1;
 9/16=-3/6;
 6/7=2,8=2,9=2,10=2/1;
 99/5=1,9=1/99;
 Leave Link    1 at Sun May 22 10:56:59 2022, MaxMem=   104857600 cpu:               0.0 elap:               0.0
 (Enter /apps/software/g16/l101.exe)
 ----------------------
 BH UHF at 1.1 Angstrom
 ----------------------
 Symbolic Z-matrix:
 Charge =  0 Multiplicity = 1
 B                     0.        0.        0. 
 H                     1.1       0.        0. 
 
 ITRead=  0  0
 MicOpt= -1 -1
 NAtoms=      2 NQM=        2 NQMF=       0 NMMI=      0 NMMIF=      0
                NMic=       0 NMicF=      0.
                    Isotopes and Nuclear Properties:
 (Nuclear quadrupole moments (NQMom) in fm**2, nuclear magnetic moments (NMagM)
  in nuclear magnetons)

  Atom         1           2
 IAtWgt=          11           1
 AtmWgt=  11.0093053   1.0078250
 NucSpn=           3           1
 AtZEff=  -0.0000000  -0.0000000
 NQMom=    4.0590000   0.0000000
 NMagM=    2.6886370   2.7928460
 AtZNuc=   5.0000000   1.0000000
 Leave Link  101 at Sun May 22 10:56:59 2022, MaxMem=   104857600 cpu:               0.1 elap:               0.1
 (Enter /apps/software/g16/l202.exe)
                          Input orientation:                          
 ---------------------------------------------------------------------
 Center     Atomic      Atomic             Coordinates (Angstroms)
 Number     Number       Type             X           Y           Z
 ---------------------------------------------------------------------
      1          5           0        0.000000    0.000000    0.000000
      2          1           0        1.100000    0.000000    0.000000
 ---------------------------------------------------------------------
 Stoichiometry    BH
 Framework group  C*V[C*(HB)]
 Deg. of freedom     1
 Full point group                 C*V     NOp   4
 Largest Abelian subgroup         C2V     NOp   4
 Largest concise Abelian subgroup C1      NOp   1
                         Standard orientation:                         
 ---------------------------------------------------------------------
 Center     Atomic      Atomic             Coordinates (Angstroms)
 Number     Number       Type             X           Y           Z
 ---------------------------------------------------------------------
      1          5           0        0.000000    0.000000    0.183333
      2          1           0        0.000000    0.000000   -0.916667
 ---------------------------------------------------------------------
 Rotational constants (GHZ):           0.0000000         452.3634862         452.3634862
 Leave Link  202 at Sun May 22 10:56:59 2022, MaxMem=   104857600 cpu:               0.0 elap:               0.0
 (Enter /apps/software/g16/l301.exe)
 Standard basis: Aug-CC-pVQZ (5D, 7F)
 Ernie: Thresh=  0.10000D-02 Tol=  0.10000D-05 Strict=F.
 Ernie:  4 primitive shells out of 54 were deleted.
 There are    68 symmetry adapted cartesian basis functions of A1  symmetry.
 There are    18 symmetry adapted cartesian basis functions of A2  symmetry.
 There are    37 symmetry adapted cartesian basis functions of B1  symmetry.
 There are    37 symmetry adapted cartesian basis functions of B2  symmetry.
 There are    50 symmetry adapted basis functions of A1  symmetry.
 There are    16 symmetry adapted basis functions of A2  symmetry.
 There are    30 symmetry adapted basis functions of B1  symmetry.
 There are    30 symmetry adapted basis functions of B2  symmetry.
   126 basis functions,   180 primitive gaussians,   160 cartesian basis functions
     3 alpha electrons        3 beta electrons
       nuclear repulsion energy         2.4053509587 Hartrees.
 IExCor=    0 DFT=F Ex=HF Corr=None ExCW=0 ScaHFX=  1.000000
 ScaDFX=  1.000000  1.000000  1.000000  1.000000 ScalE2=  1.000000  1.000000
 IRadAn=      5 IRanWt=     -1 IRanGd=            0 ICorTp=0 IEmpDi=  4
 NAtoms=    2 NActive=    2 NUniq=    2 SFac= 1.00D+00 NAtFMM=   60 NAOKFM=F Big=F
 Integral buffers will be    131072 words long.
 Raffenetti 2 integral format.
 Two-electron integral symmetry is turned on.
 Leave Link  301 at Sun May 22 10:56:59 2022, MaxMem=   104857600 cpu:               0.1 elap:               0.1
 (Enter /apps/software/g16/l302.exe)
 NPDir=0 NMtPBC=     1 NCelOv=     1 NCel=       1 NClECP=     1 NCelD=      1
         NCelK=      1 NCelE2=     1 NClLst=     1 CellRange=     0.0.
 One-electron integrals computed using PRISM.
 One-electron integral symmetry used in STVInt
 NBasis=   126 RedAO= T EigKep=  8.26D-05  NBF=    50    16    30    30
 NBsUse=   126 1.00D-06 EigRej= -1.00D+00 NBFU=    50    16    30    30
 Leave Link  302 at Sun May 22 10:56:59 2022, MaxMem=   104857600 cpu:               0.1 elap:               0.1
 (Enter /apps/software/g16/l303.exe)
 DipDrv:  MaxL=1.
 Leave Link  303 at Sun May 22 10:56:59 2022, MaxMem=   104857600 cpu:               0.0 elap:               0.0
 (Enter /apps/software/g16/l401.exe)
 Initial guess from the checkpoint file:  "BH-1.1-UMP2-G.chk"
 B after Tr=     0.000000    0.000000    0.000000
         Rot=    1.000000    0.000000    0.000000    0.000000 Ang=   0.00 deg.
 Guess basis will be translated and rotated to current coordinates.
 JPrj=2 DoOrth=T DoCkMO=T.
 Initial guess orbital symmetries:
 Alpha Orbitals:
       Occupied  (SG) (SG) (?A)
       Virtual   (?A) (?A) (?A) (?A) (?A) (?A) (?A) (?A) (?A) (?A)
                 (?A) (?A) (?A) (?B) (?B) (?B) (?A) (?A) (?A) (?A)
                 (?A) (?A) (?A) (?A) (?A) (?A) (?A) (?A) (?A) (SG)
                 (PI) (PI) (?C) (PI) (PI) (?C) (?C) (SG) (?D) (?D)
                 (?D) (PI) (PI) (?E) (?E) (?E) (?E) (?E) (?E) (?E)
                 (?E) (?E) (?E) (?E) (?E) (?E) (?E) (?F) (?F) (?F)
                 (?F) (?F) (?G) (?G) (?G) (SG) (PHI) (PHI) (DLTA)
                 (DLTA) (SG) (PI) (PI) (SG) (PI) (PI) (?H) (?H)
                 (?H) (?H) (SG) (SG) (?I) (?I) (?I) (?I) (?J) (?J)
                 (?J) (?J) (?J) (?J) (?J) (?J) (?J) (PI) (PI) (PI)
                 (PI) (?K) (?K) (?K) (SG) (?L) (?L) (?L) (PHI)
                 (PHI) (DLTA) (DLTA) (SG) (PI) (PI) (SG) (DLTA)
                 (DLTA) (PI) (PI) (PI) (PI) (SG) (SG) (SG)
 Beta  Orbitals:
       Occupied  (SG) (SG) (?A)
       Virtual   (?A) (?A) (?A) (?A) (?A) (?A) (?A) (?A) (?A) (?A)
                 (?A) (?A) (?A) (?B) (?B) (?B) (?A) (?A) (?A) (?A)
                 (?A) (?A) (?A) (?A) (?A) (?A) (?A) (?A) (?A) (SG)
                 (PI) (PI) (?C) (PI) (PI) (?C) (?C) (SG) (?D) (?D)
                 (?D) (PI) (PI) (?E) (?E) (?E) (?E) (?E) (?E) (?E)
                 (?E) (?E) (?E) (?E) (?E) (?E) (?E) (?F) (?F) (?F)
                 (?F) (?F) (?G) (?G) (?G) (SG) (PHI) (PHI) (DLTA)
                 (DLTA) (SG) (PI) (PI) (SG) (PI) (PI) (?H) (?H)
                 (?H) (?H) (SG) (SG) (?I) (?I) (?I) (?I) (?J) (?J)
                 (?J) (?J) (?J) (?J) (?J) (?J) (?J) (PI) (PI) (PI)
                 (PI) (?K) (?K) (?K) (SG) (?L) (?L) (?L) (PHI)
                 (PHI) (DLTA) (DLTA) (SG) (PI) (PI) (SG) (DLTA)
                 (DLTA) (PI) (PI) (PI) (PI) (SG) (SG) (SG)
 Initial guess <Sx>= 0.0000 <Sy>= 0.0000 <Sz>= 0.0000 <S**2>= 0.5079 S= 0.3706
 Leave Link  401 at Sun May 22 10:56:59 2022, MaxMem=   104857600 cpu:               0.1 elap:               0.1
 (Enter /apps/software/g16/l502.exe)
 Keep R1 and R2 ints in memory in symmetry-blocked form, NReq=40143665.
 FoFCou: FMM=F IPFlag=           0 FMFlag=           0 FMFlg1=           0
         NFxFlg=           0 DoJE=F BraDBF=F KetDBF=F FulRan=T
         wScrn=  0.000000 ICntrl=       600 IOpCl=  0 I1Cent=           0 NGrid=           0
         NMat0=    1 NMatS0=   8001 NMatT0=    0 NMatD0=    1 NMtDS0=    0 NMtDT0=    0
 Petite list used in FoFCou.
 UHF open shell SCF:
 Using DIIS extrapolation, IDIIS=  1040.
 NGot=   104857600 LenX=    88563632 LenY=    88537591
 Requested convergence on RMS density matrix=1.00D-08 within 128 cycles.
 Requested convergence on MAX density matrix=1.00D-06.
 Requested convergence on             energy=1.00D-06.
 No special actions if energy rises.
 An orbital has undefined symmetry, so N**3 symmetry is turned off.

 Cycle   1  Pass 1  IDiag  1:
 Density matrix breaks symmetry, PCut= 1.00D-07
 Density matrix has no symmetry -- integrals replicated.
 E= -25.1320902122995    
 DIIS: error= 4.36D-09 at cycle   1 NSaved=   1.
 NSaved= 1 IEnMin= 1 EnMin= -25.1320902122995     IErMin= 1 ErrMin= 4.36D-09
 ErrMax= 4.36D-09  0.00D+00 EMaxC= 1.00D-01 BMatC= 1.89D-15 BMatP= 1.89D-15
 IDIUse=1 WtCom= 1.00D+00 WtEn= 0.00D+00
 Coeff-Com:  0.100D+01
 Coeff:      0.100D+01
 Gap=     0.396 Goal=   None    Shift=    0.000
 Gap=     0.396 Goal=   None    Shift=    0.000
 RMSDP=2.79D-10 MaxDP=6.39D-09              OVMax= 2.09D-08

 Density matrix breaks symmetry, PCut= 1.00D-07
 Density matrix has no symmetry -- integrals replicated.
 SCF Done:  E(UHF) =  -25.1320902123     A.U. after    1 cycles
            NFock=  1  Conv=0.28D-09     -V/T= 1.9949
 <Sx>= 0.0000 <Sy>= 0.0000 <Sz>= 0.0000 <S**2>= 0.5079 S= 0.3706
 <L.S>=  0.00000000000    
 KE= 2.526158892123D+01 PE=-6.293071858359D+01 EE= 1.013168849133D+01
 Annihilation of the first spin contaminant:
 S**2 before annihilation     0.5079,   after     0.0047
 Leave Link  502 at Sun May 22 10:57:03 2022, MaxMem=   104857600 cpu:               3.8 elap:               3.8
 (Enter /apps/software/g16/l801.exe)
 ExpMin= 1.88D-02 ExpMax= 2.39D+04 ExpMxC= 2.30D+02 IAcc=3 IRadAn=         5 AccDes= 0.00D+00
 HarFok:  IExCor=  205 AccDes= 0.00D+00 IRadAn=         5 IDoV=-2 UseB2=F ITyADJ=14
 ICtDFT= 12500011 ScaDFX=  1.000000  1.000000  1.000000  1.000000
 DSYEVD-2 returned Info=        3401 IAlg= 4 N=    80 NDim=    80 NE2=     1309686 trying  DSYEV.
 Largest valence mixing into a core orbital is  3.15D-04
 Largest core mixing into a valence orbital is  5.01D-05
 Largest valence mixing into a core orbital is  3.15D-04
 Largest core mixing into a valence orbital is  5.01D-05
 Range of M.O.s used for correlation:     2   126
 NBasis=   126 NAE=     3 NBE=     3 NFC=     1 NFV=     0
 NROrb=    125 NOA=     2 NOB=     2 NVA=   123 NVB=   123

 **** Warning!!: The largest alpha MO coefficient is  0.28787598D+02


 **** Warning!!: The largest beta MO coefficient is  0.28787598D+02

 Leave Link  801 at Sun May 22 10:57:03 2022, MaxMem=   104857600 cpu:               0.1 elap:               0.1
 (Enter /apps/software/g16/l906.exe)
 FulOut=F Deriv=F AODrv=F NAtomX=     2
   MMem=         694  MDisk=           2 MDiskD=           2
  W3Min=       78720 MinDsk=      297938 NBas6D=         160
 NBas2D=       13447    NTT=       12880    LW2=     4508827
    MDV=   104734870 MDiskM=        1426 NBas2p=       13447
 Fully direct method using O(OVN) memory.
 IMap=   1   2
 JobTyp=2 Pass  1:  I=   1 to   2 NPSUse=  1 ParTrn=F ParDer=F DoDerP=F.
 IMap=   1   2
 JobTyp=3 Pass  1:  I=   1 to   2 NPSUse=  1 ParTrn=F ParDer=F DoDerP=F.
 Spin components of T(2) and E(2):
     alpha-alpha T2 =       0.1047580414D-02 E2=     -0.2509461821D-02
     alpha-beta  T2 =       0.2345519626D-01 E2=     -0.5952722555D-01
     beta-beta   T2 =       0.1047580414D-02 E2=     -0.2509461821D-02
 The integrals were generated   2 times.
 (S**2,0)=  0.50790D+00           (S**2,1)=  0.48797D+00
 E(PUHF)=      -0.25141152602D+02        E(PMP2)=      -0.25205521818D+02
 ANorm=    0.1012694602D+01
 E2 =    -0.6454614919D-01 EUMP2 =    -0.25196636361492D+02
 Leave Link  906 at Sun May 22 10:57:08 2022, MaxMem=   104857600 cpu:               5.5 elap:               5.5
 (Enter /apps/software/g16/l601.exe)
 Copying SCF densities to generalized density rwf, IOpCl= 1 IROHF=0.
 SCF density gives NOpUse=  1 NOpAll=  4.
 Marking SCF density as not fully symmetric.

 **********************************************************************

            Population analysis using the SCF density.

 **********************************************************************

 Orbital symmetries:
 Alpha Orbitals:
       Occupied  (SG) (SG) (?A)
       Virtual   (?A) (?A) (?A) (?A) (?A) (?A) (?A) (?A) (?A) (?A)
                 (?A) (?A) (?A) (?B) (?B) (?B) (?A) (?A) (?A) (?A)
                 (?A) (?A) (?A) (?A) (?A) (?A) (?A) (?A) (?A) (SG)
                 (PI) (PI) (?C) (PI) (PI) (?C) (?C) (SG) (?D) (?D)
                 (?D) (PI) (PI) (?E) (?E) (?E) (?E) (?E) (?E) (?E)
                 (?E) (?E) (?E) (?E) (?E) (?E) (?E) (?F) (?F) (?F)
                 (?F) (?F) (?G) (?G) (?G) (SG) (PHI) (PHI) (DLTA)
                 (DLTA) (SG) (PI) (PI) (SG) (PI) (PI) (?H) (?H)
                 (?H) (?H) (SG) (SG) (?I) (?I) (?I) (?I) (?J) (?J)
                 (?J) (?J) (?J) (?J) (?J) (?J) (?J) (PI) (PI) (PI)
                 (PI) (?K) (?K) (?K) (SG) (?L) (?L) (?L) (PHI)
                 (PHI) (DLTA) (DLTA) (SG) (PI) (PI) (SG) (DLTA)
                 (DLTA) (PI) (PI) (PI) (PI) (SG) (SG) (SG)
 Beta  Orbitals:
       Occupied  (SG) (SG) (?A)
       Virtual   (?A) (?A) (?A) (?A) (?A) (?A) (?A) (?A) (?A) (?A)
                 (?A) (?A) (?A) (?B) (?B) (?B) (?A) (?A) (?A) (?A)
                 (?A) (?A) (?A) (?A) (?A) (?A) (?A) (?A) (?A) (SG)
                 (PI) (PI) (?C) (PI) (PI) (?C) (?C) (SG) (?D) (?D)
                 (?D) (PI) (PI) (?E) (?E) (?E) (?E) (?E) (?E) (?E)
                 (?E) (?E) (?E) (?E) (?E) (?E) (?E) (?F) (?F) (?F)
                 (?F) (?F) (?G) (?G) (?G) (SG) (PHI) (PHI) (DLTA)
                 (DLTA) (SG) (PI) (PI) (SG) (PI) (PI) (?H) (?H)
                 (?H) (?H) (SG) (SG) (?I) (?I) (?I) (?I) (?J) (?J)
                 (?J) (?J) (?J) (?J) (?J) (?J) (?J) (PI) (PI) (PI)
                 (PI) (?K) (?K) (?K) (SG) (?L) (?L) (?L) (PHI)
                 (PHI) (DLTA) (DLTA) (SG) (PI) (PI) (SG) (DLTA)
                 (DLTA) (PI) (PI) (PI) (PI) (SG) (SG) (SG)
 Unable to determine electronic state:  an orbital has unidentified symmetry.
 Alpha  occ. eigenvalues --   -7.65888  -0.67467  -0.36933
 Alpha virt. eigenvalues --    0.02632   0.02940   0.03381   0.04406   0.08201
 Alpha virt. eigenvalues --    0.08878   0.11804   0.13266   0.13497   0.14665
 Alpha virt. eigenvalues --    0.14671   0.15015   0.18392   0.27126   0.27509
 Alpha virt. eigenvalues --    0.27710   0.32166   0.32269   0.41049   0.43382
 Alpha virt. eigenvalues --    0.44807   0.44814   0.46349   0.46353   0.47419
 Alpha virt. eigenvalues --    0.47814   0.50492   0.50501   0.51772   0.55225
 Alpha virt. eigenvalues --    0.60075   0.60418   0.76885   0.78013   0.78230
 Alpha virt. eigenvalues --    0.80630   0.80640   0.91656   1.05292   1.05492
 Alpha virt. eigenvalues --    1.09326   1.18267   1.18673   1.36712   1.37491
 Alpha virt. eigenvalues --    1.37491   1.37998   1.37998   1.39502   1.39520
 Alpha virt. eigenvalues --    1.44074   1.44087   1.45304   1.45306   1.46367
 Alpha virt. eigenvalues --    1.46951   1.47455   1.57904   1.60357   1.61012
 Alpha virt. eigenvalues --    1.66781   1.66797   1.84218   1.87082   1.87499
 Alpha virt. eigenvalues --    1.89608   1.94340   1.94340   2.03398   2.03400
 Alpha virt. eigenvalues --    2.20667   2.25953   2.26529   2.75894   3.13433
 Alpha virt. eigenvalues --    3.13847   3.22733   3.23193   3.23862   3.23883
 Alpha virt. eigenvalues --    3.29858   3.76940   3.93133   3.93133   3.94130
 Alpha virt. eigenvalues --    3.94130   4.01361   4.02371   4.03044   4.03052
 Alpha virt. eigenvalues --    4.07113   4.07151   4.10932   4.10932   4.15371
 Alpha virt. eigenvalues --    4.25891   4.26777   4.40695   4.41528   4.49235
 Alpha virt. eigenvalues --    4.49421   4.50751   5.21176   5.61241   5.61833
 Alpha virt. eigenvalues --    5.63689   6.79325   6.79325   7.44264   7.44265
 Alpha virt. eigenvalues --    7.86019   7.91596   7.91894   8.49570   8.94230
 Alpha virt. eigenvalues --    8.94230   9.27052   9.27301   9.40566   9.40962
 Alpha virt. eigenvalues --   10.10245  10.68271  17.12094
  Beta  occ. eigenvalues --   -7.65888  -0.67467  -0.36933
  Beta virt. eigenvalues --    0.02632   0.02940   0.03381   0.04406   0.08201
  Beta virt. eigenvalues --    0.08878   0.11804   0.13266   0.13497   0.14665
  Beta virt. eigenvalues --    0.14671   0.15015   0.18392   0.27126   0.27509
  Beta virt. eigenvalues --    0.27710   0.32166   0.32269   0.41049   0.43382
  Beta virt. eigenvalues --    0.44807   0.44814   0.46349   0.46353   0.47419
  Beta virt. eigenvalues --    0.47814   0.50492   0.50501   0.51772   0.55225
  Beta virt. eigenvalues --    0.60075   0.60418   0.76885   0.78013   0.78230
  Beta virt. eigenvalues --    0.80630   0.80640   0.91656   1.05292   1.05492
  Beta virt. eigenvalues --    1.09326   1.18267   1.18673   1.36712   1.37491
  Beta virt. eigenvalues --    1.37491   1.37998   1.37998   1.39502   1.39520
  Beta virt. eigenvalues --    1.44074   1.44087   1.45304   1.45306   1.46367
  Beta virt. eigenvalues --    1.46951   1.47455   1.57904   1.60357   1.61012
  Beta virt. eigenvalues --    1.66781   1.66797   1.84218   1.87082   1.87499
  Beta virt. eigenvalues --    1.89608   1.94340   1.94340   2.03398   2.03400
  Beta virt. eigenvalues --    2.20667   2.25953   2.26529   2.75894   3.13433
  Beta virt. eigenvalues --    3.13847   3.22733   3.23193   3.23862   3.23883
  Beta virt. eigenvalues --    3.29858   3.76940   3.93133   3.93133   3.94130
  Beta virt. eigenvalues --    3.94130   4.01361   4.02371   4.03044   4.03052
  Beta virt. eigenvalues --    4.07113   4.07151   4.10932   4.10932   4.15371
  Beta virt. eigenvalues --    4.25891   4.26777   4.40695   4.41528   4.49235
  Beta virt. eigenvalues --    4.49421   4.50751   5.21176   5.61241   5.61833
  Beta virt. eigenvalues --    5.63689   6.79325   6.79325   7.44264   7.44265
  Beta virt. eigenvalues --    7.86019   7.91596   7.91894   8.49570   8.94230
  Beta virt. eigenvalues --    8.94230   9.27052   9.27301   9.40566   9.40962
  Beta virt. eigenvalues --   10.10245  10.68271  17.12094
          Condensed to atoms (all electrons):
               1          2
     1  B    4.711624   0.198525
     2  H    0.198525   0.891325
          Atomic-Atomic Spin Densities.
               1          2
     1  B   -0.000000   0.000000
     2  H    0.000000   0.000000
 Mulliken charges and spin densities:
               1          2
     1  B    0.089851  -0.000000
     2  H   -0.089851   0.000000
 Sum of Mulliken charges =   0.00000  -0.00000
 Mulliken charges and spin densities with hydrogens summed into heavy atoms:
               1          2
     1  B    0.000000  -0.000000
 Electronic spatial extent (au):  <R**2>=             20.8438
 Charge=              0.0000 electrons
 Dipole moment (field-independent basis, Debye):
    X=              0.0000    Y=             -0.0000    Z=             -1.5030  Tot=              1.5030
 Quadrupole moment (field-independent basis, Debye-Ang):
   XX=             -6.2670   YY=             -7.3702   ZZ=             -9.5552
   XY=              0.0000   XZ=             -0.0000   YZ=              0.0000
 Traceless Quadrupole moment (field-independent basis, Debye-Ang):
   XX=              1.4638   YY=              0.3606   ZZ=             -1.8244
   XY=              0.0000   XZ=             -0.0000   YZ=              0.0000
 Octapole moment (field-independent basis, Debye-Ang**2):
  XXX=             -0.0000  YYY=             -0.0000  ZZZ=             -5.0505  XYY=              0.0000
  XXY=             -0.0000  XXZ=             -1.3938  XZZ=              0.0000  YZZ=             -0.0000
  YYZ=             -1.8158  XYZ=             -0.0000
 Hexadecapole moment (field-independent basis, Debye-Ang**3):
 XXXX=             -8.6578 YYYY=            -11.8628 ZZZZ=            -23.6503 XXXY=             -0.0000
 XXXZ=             -0.0000 YYYX=              0.0000 YYYZ=              0.0000 ZZZX=             -0.0000
 ZZZY=              0.0000 XXYY=             -3.4200 XXZZ=             -5.4844 YYZZ=             -6.1583
 XXYZ=              0.0000 YYXZ=             -0.0000 ZZXY=              0.0000
 N-N= 2.405350958727D+00 E-N=-6.293071857739D+01  KE= 2.526158892123D+01
 Symmetry A1   KE= 2.503227111656D+01
 Symmetry A2   KE= 4.824960470902D-31
 Symmetry B1   KE= 5.756623579378D-31
 Symmetry B2   KE= 2.293178046724D-01
 Symmetry A1   SP=-1.788554578188D-15
 Symmetry A2   SP= 7.142146526899D-33
 Symmetry B1   SP=-3.460023560840D-33
 Symmetry B2   SP= 4.503647027488D-16
 Leave Link  601 at Sun May 22 10:57:09 2022, MaxMem=   104857600 cpu:               0.1 elap:               0.1
 (Enter /apps/software/g16/l9999.exe)
 1\1\GINC-CNODE16\SP\UMP2-FC\Aug-CC-pVQZ\B1H1\LCZ\22-May-2022\0\\#p UHF
 /aug-cc-pVQZ MP2=FC guess=read\\BH UHF at 1.1 Angstrom\\0,1\B,0,0.,0.,
 0.\H,0,1.1,0.,0.\\Version=ES64L-G16RevA.03\HF=-25.1320902\MP2=-25.1966
 364\PUHF=-25.1411526\PMP2-0=-25.2055218\S2=0.507895\S2-1=0.48797\S2A=0
 .004743\RMSD=2.786e-10\PG=C*V [C*(H1B1)]\\@


 WISDOM IS KNOWING WHAT TO DO,
 SKILL IS KNOWING HOW TO DO IT,
 AND VIRTUE IS NOT DOING IT.
 Job cpu time:       0 days  0 hours  0 minutes 10.0 seconds.
 Elapsed time:       0 days  0 hours  0 minutes 10.0 seconds.
 File lengths (MBytes):  RWF=     16 Int=      0 D2E=      0 Chk=     67 Scr=      1
 Normal termination of Gaussian 16 at Sun May 22 10:57:09 2022.

Sender: Unischeduler System <lcz@mgt01>
Subject: Job 133859: <#!/bin/bash
#BSUB -J intel
#BSUB -o BH-1.1-UMP2-G.out
#BSUB -n 8
#BSUB -q cqueue
#BSUB -R span[hosts=1]
export g16root=/apps/software
source /apps/software/g16/bsd/g16.profile
export GAUSS_SCRDIR=/scratch
/apps/software/g16/g16 < BH-1.1-UMP2-G.inp > BH-1.1-UMP2-G.out> Done

Job <#!/bin/bash
#BSUB -J intel
#BSUB -o BH-1.1-UMP2-G.out
#BSUB -n 8
#BSUB -q cqueue
#BSUB -R span[hosts=1]
export g16root=/apps/software
source /apps/software/g16/bsd/g16.profile
export GAUSS_SCRDIR=/scratch
/apps/software/g16/g16 < BH-1.1-UMP2-G.inp > BH-1.1-UMP2-G.out> was submitted from host <mgt01> by user <lcz>.
Job was executed on host(s) <8*cnode16>, in queue <cqueue>, as user <lcz>.
</apps/users/lcz> was used as the home directory.
</apps/users/lcz/exe13/UMP2> was used as the working directory.
Started at 2022-05-22 10:56:58
Results reported at 2022-05-22 10:57:09

Your job looked like:

------------------------------------------------------------
# User input
#!/bin/bash
#BSUB -J intel
#BSUB -o BH-1.1-UMP2-G.out
#BSUB -n 8
#BSUB -q cqueue
#BSUB -R span[hosts=1]
export g16root=/apps/software
source /apps/software/g16/bsd/g16.profile
export GAUSS_SCRDIR=/scratch
/apps/software/g16/g16 < BH-1.1-UMP2-G.inp > BH-1.1-UMP2-G.out
------------------------------------------------------------

Successfully completed.

Resource usage summary:

    CPU time   :            0.44 sec.
    Max Memory :                49 MB
    Max Processes  :               5


The output (if any) follows:

