 Entering Gaussian System, Link 0=/apps/software/g16/g16
 Initial command:
 /apps/software/g16/l1.exe "/scratch/Gau-200339.inp" -scrdir="/scratch/"
 Entering Link 1 = /apps/software/g16/l1.exe PID=    200340.
  
 Copyright (c) 1988,1990,1992,1993,1995,1998,2003,2009,2016,
            Gaussian, Inc.  All Rights Reserved.
  
 This is part of the Gaussian(R) 16 program.  It is based on
 the Gaussian(R) 09 system (copyright 2009, Gaussian, Inc.),
 the Gaussian(R) 03 system (copyright 2003, Gaussian, Inc.),
 the Gaussian(R) 98 system (copyright 1998, Gaussian, Inc.),
 the Gaussian(R) 94 system (copyright 1995, Gaussian, Inc.),
 the Gaussian 92(TM) system (copyright 1992, Gaussian, Inc.),
 the Gaussian 90(TM) system (copyright 1990, Gaussian, Inc.),
 the Gaussian 88(TM) system (copyright 1988, Gaussian, Inc.),
 the Gaussian 86(TM) system (copyright 1986, Carnegie Mellon
 University), and the Gaussian 82(TM) system (copyright 1983,
 Carnegie Mellon University). Gaussian is a federally registered
 trademark of Gaussian, Inc.
  
 This software contains proprietary and confidential information,
 including trade secrets, belonging to Gaussian, Inc.
  
 This software is provided under written license and may be
 used, copied, transmitted, or stored only in accord with that
 written license.
  
 The following legend is applicable only to US Government
 contracts under FAR:
  
                    RESTRICTED RIGHTS LEGEND
  
 Use, reproduction and disclosure by the US Government is
 subject to restrictions as set forth in subparagraphs (a)
 and (c) of the Commercial Computer Software - Restricted
 Rights clause in FAR 52.227-19.
  
 Gaussian, Inc.
 340 Quinnipiac St., Bldg. 40, Wallingford CT 06492
  
  
 ---------------------------------------------------------------
 Warning -- This program may not be used in any manner that
 competes with the business of Gaussian, Inc. or will provide
 assistance to any competitor of Gaussian, Inc.  The licensee
 of this program is prohibited from giving any competitor of
 Gaussian, Inc. access to this program.  By using this program,
 the user acknowledges that Gaussian, Inc. is engaged in the
 business of creating and licensing software in the field of
 computational chemistry and represents and warrants to the
 licensee that it is not a competitor of Gaussian, Inc. and that
 it will not use this program in any manner prohibited above.
 ---------------------------------------------------------------
  

 Cite this work as:
 Gaussian 16, Revision A.03,
 M. J. Frisch, G. W. Trucks, H. B. Schlegel, G. E. Scuseria, 
 M. A. Robb, J. R. Cheeseman, G. Scalmani, V. Barone, 
 G. A. Petersson, H. Nakatsuji, X. Li, M. Caricato, A. V. Marenich, 
 J. Bloino, B. G. Janesko, R. Gomperts, B. Mennucci, H. P. Hratchian, 
 J. V. Ortiz, A. F. Izmaylov, J. L. Sonnenberg, D. Williams-Young, 
 F. Ding, F. Lipparini, F. Egidi, J. Goings, B. Peng, A. Petrone, 
 T. Henderson, D. Ranasinghe, V. G. Zakrzewski, J. Gao, N. Rega, 
 G. Zheng, W. Liang, M. Hada, M. Ehara, K. Toyota, R. Fukuda, 
 J. Hasegawa, M. Ishida, T. Nakajima, Y. Honda, O. Kitao, H. Nakai, 
 T. Vreven, K. Throssell, J. A. Montgomery, Jr., J. E. Peralta, 
 F. Ogliaro, M. J. Bearpark, J. J. Heyd, E. N. Brothers, K. N. Kudin, 
 V. N. Staroverov, T. A. Keith, R. Kobayashi, J. Normand, 
 K. Raghavachari, A. P. Rendell, J. C. Burant, S. S. Iyengar, 
 J. Tomasi, M. Cossi, J. M. Millam, M. Klene, C. Adamo, R. Cammi, 
 J. W. Ochterski, R. L. Martin, K. Morokuma, O. Farkas, 
 J. B. Foresman, and D. J. Fox, Gaussian, Inc., Wallingford CT, 2016.
 
 ******************************************
 Gaussian 16:  ES64L-G16RevA.03 25-Dec-2016
                22-May-2022 
 ******************************************
 %chk=BH-1.4-UHF-G.chk
 ---------------------------------------
 #p UHF/aug-cc-pVQZ guess=mix stable=opt
 ---------------------------------------
 1/38=1,172=1/1;
 2/12=2,17=6,18=5,40=1/2;
 3/5=16,6=2,7=10,11=2,25=1,30=1,116=2/1,2,3;
 4/13=-1/1;
 5/5=2,38=5/2;
 6/7=2,8=2,9=2,10=2,28=1/1;
 8/6=1,10=90,11=11/1;
 9/8=-3,42=1,46=1/14;
 5/5=2,8=3,17=40,38=5/8(-2);
 6/7=2,8=2,9=2,10=2,28=1/1;
 99/5=1,9=1/99;
 Leave Link    1 at Sun May 22 10:54:42 2022, MaxMem=           0 cpu:               0.0 elap:               0.0
 (Enter /apps/software/g16/l101.exe)
 ----------------------
 BH UHF at 1.4 Angstrom
 ----------------------
 Symbolic Z-matrix:
 Charge =  0 Multiplicity = 1
 B                     0.        0.        0. 
 H                     1.4       0.        0. 
 
 ITRead=  0  0
 MicOpt= -1 -1
 NAtoms=      2 NQM=        2 NQMF=       0 NMMI=      0 NMMIF=      0
                NMic=       0 NMicF=      0.
                    Isotopes and Nuclear Properties:
 (Nuclear quadrupole moments (NQMom) in fm**2, nuclear magnetic moments (NMagM)
  in nuclear magnetons)

  Atom         1           2
 IAtWgt=          11           1
 AtmWgt=  11.0093053   1.0078250
 NucSpn=           3           1
 AtZEff=  -0.0000000  -0.0000000
 NQMom=    4.0590000   0.0000000
 NMagM=    2.6886370   2.7928460
 AtZNuc=   5.0000000   1.0000000
 Leave Link  101 at Sun May 22 10:54:42 2022, MaxMem=   104857600 cpu:               0.1 elap:               0.1
 (Enter /apps/software/g16/l202.exe)
                          Input orientation:                          
 ---------------------------------------------------------------------
 Center     Atomic      Atomic             Coordinates (Angstroms)
 Number     Number       Type             X           Y           Z
 ---------------------------------------------------------------------
      1          5           0        0.000000    0.000000    0.000000
      2          1           0        1.400000    0.000000    0.000000
 ---------------------------------------------------------------------
 Stoichiometry    BH
 Framework group  C*V[C*(HB)]
 Deg. of freedom     1
 Full point group                 C*V     NOp   4
 Largest Abelian subgroup         C2V     NOp   4
 Largest concise Abelian subgroup C1      NOp   1
                         Standard orientation:                         
 ---------------------------------------------------------------------
 Center     Atomic      Atomic             Coordinates (Angstroms)
 Number     Number       Type             X           Y           Z
 ---------------------------------------------------------------------
      1          5           0        0.000000    0.000000    0.233333
      2          1           0        0.000000    0.000000   -1.166667
 ---------------------------------------------------------------------
 Rotational constants (GHZ):           0.0000000         279.2652134         279.2652134
 Leave Link  202 at Sun May 22 10:54:42 2022, MaxMem=   104857600 cpu:               0.0 elap:               0.0
 (Enter /apps/software/g16/l301.exe)
 Standard basis: Aug-CC-pVQZ (5D, 7F)
 Ernie: Thresh=  0.10000D-02 Tol=  0.10000D-05 Strict=F.
 Ernie:  4 primitive shells out of 54 were deleted.
 There are    68 symmetry adapted cartesian basis functions of A1  symmetry.
 There are    18 symmetry adapted cartesian basis functions of A2  symmetry.
 There are    37 symmetry adapted cartesian basis functions of B1  symmetry.
 There are    37 symmetry adapted cartesian basis functions of B2  symmetry.
 There are    50 symmetry adapted basis functions of A1  symmetry.
 There are    16 symmetry adapted basis functions of A2  symmetry.
 There are    30 symmetry adapted basis functions of B1  symmetry.
 There are    30 symmetry adapted basis functions of B2  symmetry.
   126 basis functions,   180 primitive gaussians,   160 cartesian basis functions
     3 alpha electrons        3 beta electrons
       nuclear repulsion energy         1.8899186104 Hartrees.
 IExCor=    0 DFT=F Ex=HF Corr=None ExCW=0 ScaHFX=  1.000000
 ScaDFX=  1.000000  1.000000  1.000000  1.000000 ScalE2=  1.000000  1.000000
 IRadAn=      5 IRanWt=     -1 IRanGd=            0 ICorTp=0 IEmpDi=  4
 NAtoms=    2 NActive=    2 NUniq=    2 SFac= 1.00D+00 NAtFMM=   60 NAOKFM=F Big=F
 Integral buffers will be    131072 words long.
 Raffenetti 2 integral format.
 Two-electron integral symmetry is turned on.
 Leave Link  301 at Sun May 22 10:54:42 2022, MaxMem=   104857600 cpu:               0.1 elap:               0.1
 (Enter /apps/software/g16/l302.exe)
 NPDir=0 NMtPBC=     1 NCelOv=     1 NCel=       1 NClECP=     1 NCelD=      1
         NCelK=      1 NCelE2=     1 NClLst=     1 CellRange=     0.0.
 One-electron integrals computed using PRISM.
 One-electron integral symmetry used in STVInt
 NBasis=   126 RedAO= T EigKep=  1.68D-04  NBF=    50    16    30    30
 NBsUse=   126 1.00D-06 EigRej= -1.00D+00 NBFU=    50    16    30    30
 Leave Link  302 at Sun May 22 10:54:42 2022, MaxMem=   104857600 cpu:               0.1 elap:               0.1
 (Enter /apps/software/g16/l303.exe)
 DipDrv:  MaxL=1.
 Leave Link  303 at Sun May 22 10:54:42 2022, MaxMem=   104857600 cpu:               0.0 elap:               0.0
 (Enter /apps/software/g16/l401.exe)
 ExpMin= 1.88D-02 ExpMax= 2.39D+04 ExpMxC= 2.30D+02 IAcc=3 IRadAn=         5 AccDes= 0.00D+00
 Harris functional with IExCor=  205 and IRadAn=       5 diagonalized for initial guess.
 HarFok:  IExCor=  205 AccDes= 0.00D+00 IRadAn=         5 IDoV= 1 UseB2=F ITyADJ=14
 ICtDFT=  3500011 ScaDFX=  1.000000  1.000000  1.000000  1.000000
 FoFCou: FMM=F IPFlag=           0 FMFlag=      100000 FMFlg1=           0
         NFxFlg=           0 DoJE=T BraDBF=F KetDBF=T FulRan=T
         wScrn=  0.000000 ICntrl=       500 IOpCl=  0 I1Cent=   200000004 NGrid=           0
         NMat0=    1 NMatS0=      1 NMatT0=    0 NMatD0=    1 NMtDS0=    0 NMtDT0=    0
 Petite list used in FoFCou.
 Harris En= -25.0945702771562    
 JPrj=0 DoOrth=F DoCkMO=T.
 Mixing orbitals, IMix= 1 IMixAn=  0 NRI=1 NE=    3 Coef=  7.07106781D-01  7.07106781D-01
 Mixing orbitals, IMix= 1 IMixAn=  0 NRI=1 NE=    3 Coef= -7.07106781D-01  7.07106781D-01
 Initial guess orbital symmetries:
 Alpha Orbitals:
       Occupied  (SG) (SG) (?A)
       Virtual   (?A) (?A) (SG) (SG) (PI) (PI) (SG) (SG) (PI) (PI)
                 (DLTA) (DLTA) (SG) (SG) (PI) (PI) (PI) (PI) (SG)
                 (SG) (PI) (PI) (DLTA) (DLTA) (DLTA) (DLTA) (PHI)
                 (PHI) (SG) (SG) (PI) (PI) (SG) (PI) (PI) (SG)
                 (DLTA) (DLTA) (PI) (PI) (SG) (PI) (PI) (SG) (DLTA)
                 (DLTA) (PHI) (PHI) (SG) (PI) (PI) (?B) (?B) (DLTA)
                 (DLTA) (PHI) (PHI) (SG) (PI) (PI) (DLTA) (DLTA)
                 (SG) (PI) (PI) (PHI) (PHI) (SG) (DLTA) (DLTA)
                 (PI) (PI) (SG) (SG) (DLTA) (DLTA) (PI) (PI) (SG)
                 (PI) (PI) (SG) (PI) (PI) (DLTA) (DLTA) (PHI) (PHI)
                 (?B) (?B) (SG) (PI) (PI) (DLTA) (DLTA) (PHI) (PHI)
                 (DLTA) (DLTA) (PI) (PI) (SG) (SG) (PI) (PI) (SG)
                 (PHI) (PHI) (DLTA) (DLTA) (PI) (PI) (SG) (SG)
                 (PI) (PI) (DLTA) (DLTA) (PI) (PI) (SG) (SG) (SG)
 Beta  Orbitals:
       Occupied  (SG) (SG) (?A)
       Virtual   (?A) (?A) (SG) (SG) (PI) (PI) (SG) (SG) (PI) (PI)
                 (DLTA) (DLTA) (SG) (SG) (PI) (PI) (PI) (PI) (SG)
                 (SG) (PI) (PI) (DLTA) (DLTA) (DLTA) (DLTA) (PHI)
                 (PHI) (SG) (SG) (PI) (PI) (SG) (PI) (PI) (SG)
                 (DLTA) (DLTA) (PI) (PI) (SG) (PI) (PI) (SG) (DLTA)
                 (DLTA) (PHI) (PHI) (SG) (PI) (PI) (?B) (?B) (DLTA)
                 (DLTA) (PHI) (PHI) (SG) (PI) (PI) (DLTA) (DLTA)
                 (SG) (PI) (PI) (PHI) (PHI) (SG) (DLTA) (DLTA)
                 (PI) (PI) (SG) (SG) (DLTA) (DLTA) (PI) (PI) (SG)
                 (PI) (PI) (SG) (PI) (PI) (DLTA) (DLTA) (PHI) (PHI)
                 (?B) (?B) (SG) (PI) (PI) (DLTA) (DLTA) (PHI) (PHI)
                 (DLTA) (DLTA) (PI) (PI) (SG) (SG) (PI) (PI) (SG)
                 (PHI) (PHI) (DLTA) (DLTA) (PI) (PI) (SG) (SG)
                 (PI) (PI) (DLTA) (DLTA) (PI) (PI) (SG) (SG) (SG)
 Initial guess <Sx>= 0.0000 <Sy>= 0.0000 <Sz>= 0.0000 <S**2>= 1.0000 S= 0.6180
 Leave Link  401 at Sun May 22 10:54:42 2022, MaxMem=   104857600 cpu:               0.2 elap:               0.2
 (Enter /apps/software/g16/l502.exe)
 Keep R1 and R2 ints in memory in symmetry-blocked form, NReq=40143665.
 FoFCou: FMM=F IPFlag=           0 FMFlag=           0 FMFlg1=           0
         NFxFlg=           0 DoJE=F BraDBF=F KetDBF=F FulRan=T
         wScrn=  0.000000 ICntrl=       600 IOpCl=  0 I1Cent=           0 NGrid=           0
         NMat0=    1 NMatS0=   8001 NMatT0=    0 NMatD0=    1 NMtDS0=    0 NMtDT0=    0
 Petite list used in FoFCou.
 UHF open shell SCF:
 Using DIIS extrapolation, IDIIS=  1040.
 NGot=   104857600 LenX=    88563632 LenY=    88537591
 Requested convergence on RMS density matrix=1.00D-08 within 128 cycles.
 Requested convergence on MAX density matrix=1.00D-06.
 Requested convergence on             energy=1.00D-06.
 No special actions if energy rises.
 An orbital has undefined symmetry, so N**3 symmetry is turned off.

 Cycle   1  Pass 1  IDiag  1:
 Density matrix breaks symmetry, PCut= 1.00D-07
 Density matrix has no symmetry -- integrals replicated.
 E= -25.0572349001394    
 DIIS: error= 1.92D-02 at cycle   1 NSaved=   1.
 NSaved= 1 IEnMin= 1 EnMin= -25.0572349001394     IErMin= 1 ErrMin= 1.92D-02
 ErrMax= 1.92D-02  0.00D+00 EMaxC= 1.00D-01 BMatC= 1.73D-01 BMatP= 1.73D-01
 IDIUse=3 WtCom= 8.08D-01 WtEn= 1.92D-01
 Coeff-Com:  0.100D+01
 Coeff-En:   0.100D+01
 Coeff:      0.100D+01
 Gap=     0.426 Goal=   None    Shift=    0.000
 Gap=     0.426 Goal=   None    Shift=    0.000
 GapD=    0.426 DampG=2.000 DampE=0.500 DampFc=1.0000 IDamp=-1.
 RMSDP=1.02D-03 MaxDP=4.10D-02              OVMax= 1.52D-01

 Cycle   2  Pass 1  IDiag  1:
 Density matrix breaks symmetry, PCut= 1.00D-07
 Density matrix has no symmetry -- integrals replicated.
 E= -25.1050663506164     Delta-E=       -0.047831450477 Rises=F Damp=F
 DIIS: error= 1.11D-02 at cycle   2 NSaved=   2.
 NSaved= 2 IEnMin= 2 EnMin= -25.1050663506164     IErMin= 2 ErrMin= 1.11D-02
 ErrMax= 1.11D-02  0.00D+00 EMaxC= 1.00D-01 BMatC= 1.05D-02 BMatP= 1.73D-01
 IDIUse=3 WtCom= 8.89D-01 WtEn= 1.11D-01
 Coeff-Com: -0.111D+00 0.111D+01
 Coeff-En:   0.000D+00 0.100D+01
 Coeff:     -0.987D-01 0.110D+01
 Gap=     0.406 Goal=   None    Shift=    0.000
 Gap=     0.406 Goal=   None    Shift=    0.000
 RMSDP=5.41D-04 MaxDP=2.07D-02 DE=-4.78D-02 OVMax= 9.47D-02

 Cycle   3  Pass 1  IDiag  1:
 Density matrix breaks symmetry, PCut= 1.00D-07
 Density matrix has no symmetry -- integrals replicated.
 E= -25.1183499656675     Delta-E=       -0.013283615051 Rises=F Damp=F
 DIIS: error= 6.56D-03 at cycle   3 NSaved=   3.
 NSaved= 3 IEnMin= 3 EnMin= -25.1183499656675     IErMin= 3 ErrMin= 6.56D-03
 ErrMax= 6.56D-03  0.00D+00 EMaxC= 1.00D-01 BMatC= 2.81D-03 BMatP= 1.05D-02
 IDIUse=3 WtCom= 9.34D-01 WtEn= 6.56D-02
 Coeff-Com:  0.565D-01-0.817D+00 0.176D+01
 Coeff-En:   0.000D+00 0.000D+00 0.100D+01
 Coeff:      0.528D-01-0.763D+00 0.171D+01
 Gap=     0.404 Goal=   None    Shift=    0.000
 Gap=     0.404 Goal=   None    Shift=    0.000
 RMSDP=4.65D-04 MaxDP=1.40D-02 DE=-1.33D-02 OVMax= 8.73D-02

 Cycle   4  Pass 1  IDiag  1:
 Density matrix breaks symmetry, PCut= 1.00D-07
 Density matrix has no symmetry -- integrals replicated.
 E= -25.1245597936947     Delta-E=       -0.006209828027 Rises=F Damp=F
 DIIS: error= 2.81D-03 at cycle   4 NSaved=   4.
 NSaved= 4 IEnMin= 4 EnMin= -25.1245597936947     IErMin= 4 ErrMin= 2.81D-03
 ErrMax= 2.81D-03  0.00D+00 EMaxC= 1.00D-01 BMatC= 7.41D-04 BMatP= 2.81D-03
 IDIUse=3 WtCom= 9.72D-01 WtEn= 2.81D-02
 Coeff-Com: -0.503D-01 0.931D+00-0.240D+01 0.252D+01
 Coeff-En:   0.000D+00 0.000D+00 0.000D+00 0.100D+01
 Coeff:     -0.489D-01 0.905D+00-0.234D+01 0.248D+01
 Gap=     0.396 Goal=   None    Shift=    0.000
 Gap=     0.396 Goal=   None    Shift=    0.000
 RMSDP=3.63D-04 MaxDP=1.21D-02 DE=-6.21D-03 OVMax= 6.82D-02

 Cycle   5  Pass 1  IDiag  1:
 Density matrix breaks symmetry, PCut= 1.00D-07
 Density matrix has no symmetry -- integrals replicated.
 E= -25.1268146367312     Delta-E=       -0.002254843036 Rises=F Damp=F
 DIIS: error= 8.63D-04 at cycle   5 NSaved=   5.
 NSaved= 5 IEnMin= 5 EnMin= -25.1268146367312     IErMin= 5 ErrMin= 8.63D-04
 ErrMax= 8.63D-04  0.00D+00 EMaxC= 1.00D-01 BMatC= 1.10D-04 BMatP= 7.41D-04
 IDIUse=3 WtCom= 9.91D-01 WtEn= 8.63D-03
 Coeff-Com:  0.636D-02-0.168D+00 0.484D+00-0.101D+01 0.168D+01
 Coeff-En:   0.000D+00 0.000D+00 0.000D+00 0.000D+00 0.100D+01
 Coeff:      0.630D-02-0.167D+00 0.480D+00-0.998D+00 0.168D+01
 Gap=     0.397 Goal=   None    Shift=    0.000
 Gap=     0.397 Goal=   None    Shift=    0.000
 RMSDP=1.87D-04 MaxDP=5.83D-03 DE=-2.25D-03 OVMax= 3.38D-02

 Cycle   6  Pass 1  IDiag  1:
 Density matrix breaks symmetry, PCut= 1.00D-07
 Density matrix has no symmetry -- integrals replicated.
 E= -25.1272011461286     Delta-E=       -0.000386509397 Rises=F Damp=F
 DIIS: error= 4.10D-04 at cycle   6 NSaved=   6.
 NSaved= 6 IEnMin= 6 EnMin= -25.1272011461286     IErMin= 6 ErrMin= 4.10D-04
 ErrMax= 4.10D-04  0.00D+00 EMaxC= 1.00D-01 BMatC= 1.80D-05 BMatP= 1.10D-04
 IDIUse=3 WtCom= 9.96D-01 WtEn= 4.10D-03
 Coeff-Com:  0.208D-02-0.192D-01 0.410D-01 0.885D-01-0.609D+00 0.150D+01
 Coeff-En:   0.000D+00 0.000D+00 0.000D+00 0.000D+00 0.000D+00 0.100D+01
 Coeff:      0.207D-02-0.191D-01 0.408D-01 0.881D-01-0.606D+00 0.149D+01
 Gap=     0.395 Goal=   None    Shift=    0.000
 Gap=     0.395 Goal=   None    Shift=    0.000
 RMSDP=6.05D-05 MaxDP=2.19D-03 DE=-3.87D-04 OVMax= 9.47D-03

 Cycle   7  Pass 1  IDiag  1:
 Density matrix breaks symmetry, PCut= 1.00D-07
 Density matrix has no symmetry -- integrals replicated.
 E= -25.1272483479073     Delta-E=       -0.000047201779 Rises=F Damp=F
 DIIS: error= 3.71D-04 at cycle   7 NSaved=   7.
 NSaved= 7 IEnMin= 7 EnMin= -25.1272483479073     IErMin= 7 ErrMin= 3.71D-04
 ErrMax= 3.71D-04  0.00D+00 EMaxC= 1.00D-01 BMatC= 5.57D-06 BMatP= 1.80D-05
 IDIUse=3 WtCom= 9.96D-01 WtEn= 3.71D-03
 Coeff-Com: -0.280D-02 0.545D-01-0.171D+00 0.285D+00-0.220D+00-0.102D+01
 Coeff-Com:  0.207D+01
 Coeff-En:   0.000D+00 0.000D+00 0.000D+00 0.000D+00 0.000D+00 0.000D+00
 Coeff-En:   0.100D+01
 Coeff:     -0.279D-02 0.543D-01-0.170D+00 0.284D+00-0.219D+00-0.101D+01
 Coeff:      0.207D+01
 Gap=     0.395 Goal=   None    Shift=    0.000
 Gap=     0.395 Goal=   None    Shift=    0.000
 RMSDP=4.57D-05 MaxDP=1.78D-03 DE=-4.72D-05 OVMax= 6.58D-03

 Cycle   8  Pass 1  IDiag  1:
 Density matrix breaks symmetry, PCut= 1.00D-07
 Density matrix has no symmetry -- integrals replicated.
 E= -25.1272637987597     Delta-E=       -0.000015450852 Rises=F Damp=F
 DIIS: error= 1.04D-04 at cycle   8 NSaved=   8.
 NSaved= 8 IEnMin= 8 EnMin= -25.1272637987597     IErMin= 8 ErrMin= 1.04D-04
 ErrMax= 1.04D-04  0.00D+00 EMaxC= 1.00D-01 BMatC= 3.96D-07 BMatP= 5.57D-06
 IDIUse=3 WtCom= 9.99D-01 WtEn= 1.04D-03
 Coeff-Com:  0.154D-02-0.267D-01 0.783D-01-0.127D+00 0.143D+00 0.368D+00
 Coeff-Com: -0.105D+01 0.161D+01
 Coeff-En:   0.000D+00 0.000D+00 0.000D+00 0.000D+00 0.000D+00 0.000D+00
 Coeff-En:   0.000D+00 0.100D+01
 Coeff:      0.154D-02-0.266D-01 0.782D-01-0.127D+00 0.143D+00 0.368D+00
 Coeff:     -0.105D+01 0.161D+01
 Gap=     0.395 Goal=   None    Shift=    0.000
 Gap=     0.395 Goal=   None    Shift=    0.000
 RMSDP=5.46D-06 MaxDP=1.81D-04 DE=-1.55D-05 OVMax= 9.45D-04

 Cycle   9  Pass 1  IDiag  1:
 Density matrix breaks symmetry, PCut= 1.00D-07
 Density matrix has no symmetry -- integrals replicated.
 E= -25.1272644177769     Delta-E=       -0.000000619017 Rises=F Damp=F
 DIIS: error= 6.46D-06 at cycle   9 NSaved=   9.
 NSaved= 9 IEnMin= 9 EnMin= -25.1272644177769     IErMin= 9 ErrMin= 6.46D-06
 ErrMax= 6.46D-06  0.00D+00 EMaxC= 1.00D-01 BMatC= 8.95D-09 BMatP= 3.96D-07
 IDIUse=1 WtCom= 1.00D+00 WtEn= 0.00D+00
 Coeff-Com: -0.318D-03 0.515D-02-0.146D-01 0.230D-01-0.277D-01-0.963D-01
 Coeff-Com:  0.268D+00-0.506D+00 0.135D+01
 Coeff:     -0.318D-03 0.515D-02-0.146D-01 0.230D-01-0.277D-01-0.963D-01
 Coeff:      0.268D+00-0.506D+00 0.135D+01
 Gap=     0.395 Goal=   None    Shift=    0.000
 Gap=     0.395 Goal=   None    Shift=    0.000
 RMSDP=1.14D-06 MaxDP=3.80D-05 DE=-6.19D-07 OVMax= 1.33D-04

 Cycle  10  Pass 1  IDiag  1:
 Density matrix breaks symmetry, PCut= 1.00D-07
 Density matrix has no symmetry -- integrals replicated.
 E= -25.1272644306075     Delta-E=       -0.000000012831 Rises=F Damp=F
 DIIS: error= 1.22D-06 at cycle  10 NSaved=  10.
 NSaved=10 IEnMin=10 EnMin= -25.1272644306075     IErMin=10 ErrMin= 1.22D-06
 ErrMax= 1.22D-06  0.00D+00 EMaxC= 1.00D-01 BMatC= 3.47D-10 BMatP= 8.95D-09
 IDIUse=1 WtCom= 1.00D+00 WtEn= 0.00D+00
 Coeff-Com:  0.715D-04-0.107D-02 0.284D-02-0.432D-02 0.507D-02 0.264D-01
 Coeff-Com: -0.682D-01 0.127D+00-0.475D+00 0.139D+01
 Coeff:      0.715D-04-0.107D-02 0.284D-02-0.432D-02 0.507D-02 0.264D-01
 Coeff:     -0.682D-01 0.127D+00-0.475D+00 0.139D+01
 Gap=     0.395 Goal=   None    Shift=    0.000
 Gap=     0.395 Goal=   None    Shift=    0.000
 RMSDP=2.45D-07 MaxDP=1.14D-05 DE=-1.28D-08 OVMax= 2.57D-05

 Cycle  11  Pass 1  IDiag  1:
 Density matrix breaks symmetry, PCut= 1.00D-07
 Density matrix has no symmetry -- integrals replicated.
 E= -25.1272644310696     Delta-E=       -0.000000000462 Rises=F Damp=F
 DIIS: error= 3.38D-07 at cycle  11 NSaved=  11.
 NSaved=11 IEnMin=11 EnMin= -25.1272644310696     IErMin=11 ErrMin= 3.38D-07
 ErrMax= 3.38D-07  0.00D+00 EMaxC= 1.00D-01 BMatC= 1.34D-11 BMatP= 3.47D-10
 IDIUse=1 WtCom= 1.00D+00 WtEn= 0.00D+00
 Coeff-Com: -0.488D-05 0.256D-04 0.206D-04-0.205D-03 0.444D-03-0.367D-02
 Coeff-Com:  0.725D-02-0.128D-01 0.768D-01-0.393D+00 0.133D+01
 Coeff:     -0.488D-05 0.256D-04 0.206D-04-0.205D-03 0.444D-03-0.367D-02
 Coeff:      0.725D-02-0.128D-01 0.768D-01-0.393D+00 0.133D+01
 Gap=     0.395 Goal=   None    Shift=    0.000
 Gap=     0.395 Goal=   None    Shift=    0.000
 RMSDP=3.79D-08 MaxDP=1.69D-06 DE=-4.62D-10 OVMax= 4.80D-06

 Cycle  12  Pass 1  IDiag  1:
 Density matrix breaks symmetry, PCut= 1.00D-07
 Density matrix has no symmetry -- integrals replicated.
 E= -25.1272644310854     Delta-E=       -0.000000000016 Rises=F Damp=F
 DIIS: error= 5.99D-08 at cycle  12 NSaved=  12.
 NSaved=12 IEnMin=12 EnMin= -25.1272644310854     IErMin=12 ErrMin= 5.99D-08
 ErrMax= 5.99D-08  0.00D+00 EMaxC= 1.00D-01 BMatC= 4.90D-13 BMatP= 1.34D-11
 IDIUse=1 WtCom= 1.00D+00 WtEn= 0.00D+00
 Coeff-Com: -0.875D-07 0.580D-05-0.247D-04 0.457D-04-0.743D-04 0.350D-03
 Coeff-Com: -0.737D-03 0.921D-03-0.459D-02 0.473D-01-0.342D+00 0.130D+01
 Coeff:     -0.875D-07 0.580D-05-0.247D-04 0.457D-04-0.743D-04 0.350D-03
 Coeff:     -0.737D-03 0.921D-03-0.459D-02 0.473D-01-0.342D+00 0.130D+01
 Gap=     0.395 Goal=   None    Shift=    0.000
 Gap=     0.395 Goal=   None    Shift=    0.000
 RMSDP=1.01D-08 MaxDP=3.12D-07 DE=-1.58D-11 OVMax= 1.63D-06

 Cycle  13  Pass 1  IDiag  1:
 Density matrix breaks symmetry, PCut= 1.00D-07
 Density matrix has no symmetry -- integrals replicated.
 E= -25.1272644310862     Delta-E=       -0.000000000001 Rises=F Damp=F
 DIIS: error= 8.76D-09 at cycle  13 NSaved=  13.
 NSaved=13 IEnMin=13 EnMin= -25.1272644310862     IErMin=13 ErrMin= 8.76D-09
 ErrMax= 8.76D-09  0.00D+00 EMaxC= 1.00D-01 BMatC= 7.19D-15 BMatP= 4.90D-13
 IDIUse=1 WtCom= 1.00D+00 WtEn= 0.00D+00
 Coeff-Com:  0.157D-06-0.310D-05 0.900D-05-0.147D-04 0.208D-04-0.128D-04
 Coeff-Com:  0.244D-04 0.306D-04-0.447D-03-0.344D-02 0.581D-01-0.325D+00
 Coeff-Com:  0.127D+01
 Coeff:      0.157D-06-0.310D-05 0.900D-05-0.147D-04 0.208D-04-0.128D-04
 Coeff:      0.244D-04 0.306D-04-0.447D-03-0.344D-02 0.581D-01-0.325D+00
 Coeff:      0.127D+01
 Gap=     0.395 Goal=   None    Shift=    0.000
 Gap=     0.395 Goal=   None    Shift=    0.000
 RMSDP=8.59D-10 MaxDP=2.92D-08 DE=-7.32D-13 OVMax= 9.47D-08

 Density matrix breaks symmetry, PCut= 1.00D-07
 Density matrix has no symmetry -- integrals replicated.
 SCF Done:  E(UHF) =  -25.1272644311     A.U. after   13 cycles
            NFock= 13  Conv=0.86D-09     -V/T= 2.0055
 <Sx>= 0.0000 <Sy>= 0.0000 <Sz>= 0.0000 <S**2>= 0.4363 S= 0.3284
 <L.S>=  0.00000000000    
 KE= 2.498971873383D+01 PE=-6.167686795610D+01 EE= 9.669966180763D+00
 Annihilation of the first spin contaminant:
 S**2 before annihilation     0.4363,   after     0.0052
 Leave Link  502 at Sun May 22 10:54:46 2022, MaxMem=   104857600 cpu:               3.8 elap:               3.8
 (Enter /apps/software/g16/l601.exe)
 Copying SCF densities to generalized density rwf, IOpCl= 1 IROHF=0.
 SCF density gives NOpUse=  1 NOpAll=  4.
 Marking SCF density as not fully symmetric.

 **********************************************************************

            Population analysis using the SCF density.

 **********************************************************************

 Orbital symmetries:
 Alpha Orbitals:
       Occupied  (SG) (?A) (?A)
       Virtual   (?A) (?A) (?A) (?A) (?A) (?A) (?A) (?B) (?B) (?B)
                 (?B) (?B) (?A) (?C) (?C) (?C) (?A) (?A) (?A) (?A)
                 (?A) (?A) (?A) (?A) (?A) (?A) (?A) (?A) (SG) (SG)
                 (PI) (PI) (SG) (PI) (PI) (DLTA) (DLTA) (SG) (?D)
                 (?D) (?D) (?D) (?D) (?E) (?F) (?F) (?F) (?F) (?E)
                 (?E) (?E) (?E) (?E) (?E) (?E) (?E) (?E) (?E) (?E)
                 (?E) (?E) (?E) (SG) (?G) (?G) (?G) (?G) (SG) (DLTA)
                 (DLTA) (PI) (PI) (SG) (SG) (DLTA) (DLTA) (PI)
                 (PI) (SG) (PI) (PI) (SG) (PI) (PI) (?F) (?F) (?F)
                 (?F) (DLTA) (DLTA) (?H) (?H) (?H) (?H) (?H) (?H)
                 (?H) (?H) (?H) (PI) (PI) (SG) (SG) (PI) (PI) (SG)
                 (PHI) (PHI) (DLTA) (DLTA) (PI) (PI) (SG) (SG)
                 (PI) (PI) (DLTA) (DLTA) (PI) (PI) (SG) (SG) (SG)
 Beta  Orbitals:
       Occupied  (SG) (?A) (?A)
       Virtual   (?A) (?A) (?A) (?A) (?A) (?A) (?A) (?B) (?B) (?B)
                 (?B) (?B) (?A) (?C) (?C) (?C) (?A) (?A) (?A) (?A)
                 (?A) (?A) (?A) (?A) (?A) (?A) (?A) (?A) (SG) (SG)
                 (PI) (PI) (SG) (PI) (PI) (DLTA) (DLTA) (SG) (?D)
                 (?D) (?D) (?D) (?D) (?E) (?F) (?F) (?F) (?F) (?E)
                 (?E) (?E) (?E) (?E) (?E) (?E) (?E) (?E) (?E) (?E)
                 (?E) (?E) (?E) (SG) (?G) (?G) (?G) (?G) (SG) (DLTA)
                 (DLTA) (PI) (PI) (SG) (SG) (DLTA) (DLTA) (PI)
                 (PI) (SG) (PI) (PI) (SG) (PI) (PI) (?F) (?F) (?F)
                 (?F) (DLTA) (DLTA) (?H) (?H) (?H) (?H) (?H) (?H)
                 (?H) (?H) (?H) (PI) (PI) (SG) (SG) (PI) (PI) (SG)
                 (PHI) (PHI) (DLTA) (DLTA) (PI) (PI) (SG) (SG)
                 (PI) (PI) (DLTA) (DLTA) (PI) (PI) (SG) (SG) (SG)
 Unable to determine electronic state:  an orbital has unidentified symmetry.
 Alpha  occ. eigenvalues --   -7.69780  -0.60563  -0.37017
 Alpha virt. eigenvalues --    0.02448   0.02888   0.03357   0.04583   0.07909
 Alpha virt. eigenvalues --    0.08418   0.11038   0.13622   0.13754   0.14608
 Alpha virt. eigenvalues --    0.14613   0.14823   0.19624   0.25343   0.27224
 Alpha virt. eigenvalues --    0.27344   0.31098   0.31282   0.37611   0.40010
 Alpha virt. eigenvalues --    0.45973   0.45974   0.46243   0.46243   0.47896
 Alpha virt. eigenvalues --    0.48209   0.50143   0.50168   0.53305   0.54811
 Alpha virt. eigenvalues --    0.57732   0.57995   0.73080   0.78439   0.78617
 Alpha virt. eigenvalues --    0.80680   0.80682   0.81675   1.01406   1.01473
 Alpha virt. eigenvalues --    1.16324   1.20185   1.20527   1.33512   1.36586
 Alpha virt. eigenvalues --    1.36586   1.37170   1.37170   1.38815   1.38823
 Alpha virt. eigenvalues --    1.41948   1.42082   1.42673   1.43840   1.43899
 Alpha virt. eigenvalues --    1.45630   1.45667   1.52646   1.55665   1.56228
 Alpha virt. eigenvalues --    1.60244   1.60250   1.66714   1.84406   1.84410
 Alpha virt. eigenvalues --    1.85139   1.85456   1.94390   2.11157   2.11158
 Alpha virt. eigenvalues --    2.17140   2.17533   2.30331   2.42209   2.87275
 Alpha virt. eigenvalues --    2.87276   3.00222   3.00507   3.22275   3.30331
 Alpha virt. eigenvalues --    3.30676   3.37473   3.86145   3.86861   3.92163
 Alpha virt. eigenvalues --    3.92163   3.94096   3.94096   3.98477   3.98482
 Alpha virt. eigenvalues --    4.09189   4.09189   4.10618   4.10995   4.11156
 Alpha virt. eigenvalues --    4.11355   4.11786   4.16890   4.16932   4.27379
 Alpha virt. eigenvalues --    4.28087   4.40956   4.81016   4.98768   4.99380
 Alpha virt. eigenvalues --    5.47587   6.67483   6.67483   6.98333   6.98333
 Alpha virt. eigenvalues --    7.44868   7.45102   7.51254   8.10378   8.56060
 Alpha virt. eigenvalues --    8.56193   8.66270   8.66270   9.21291   9.21413
 Alpha virt. eigenvalues --    9.39243   9.97244  14.86039
  Beta  occ. eigenvalues --   -7.69780  -0.60563  -0.37017
  Beta virt. eigenvalues --    0.02448   0.02888   0.03357   0.04583   0.07909
  Beta virt. eigenvalues --    0.08418   0.11038   0.13622   0.13754   0.14608
  Beta virt. eigenvalues --    0.14613   0.14823   0.19624   0.25343   0.27224
  Beta virt. eigenvalues --    0.27344   0.31098   0.31282   0.37611   0.40010
  Beta virt. eigenvalues --    0.45973   0.45974   0.46243   0.46243   0.47896
  Beta virt. eigenvalues --    0.48209   0.50143   0.50168   0.53305   0.54811
  Beta virt. eigenvalues --    0.57732   0.57995   0.73080   0.78439   0.78617
  Beta virt. eigenvalues --    0.80680   0.80682   0.81675   1.01406   1.01473
  Beta virt. eigenvalues --    1.16324   1.20185   1.20527   1.33512   1.36586
  Beta virt. eigenvalues --    1.36586   1.37170   1.37170   1.38815   1.38823
  Beta virt. eigenvalues --    1.41948   1.42082   1.42673   1.43840   1.43899
  Beta virt. eigenvalues --    1.45630   1.45667   1.52646   1.55665   1.56228
  Beta virt. eigenvalues --    1.60244   1.60250   1.66714   1.84406   1.84410
  Beta virt. eigenvalues --    1.85139   1.85456   1.94390   2.11157   2.11158
  Beta virt. eigenvalues --    2.17140   2.17533   2.30331   2.42209   2.87275
  Beta virt. eigenvalues --    2.87276   3.00222   3.00507   3.22275   3.30331
  Beta virt. eigenvalues --    3.30676   3.37473   3.86145   3.86861   3.92163
  Beta virt. eigenvalues --    3.92163   3.94096   3.94096   3.98477   3.98482
  Beta virt. eigenvalues --    4.09189   4.09189   4.10618   4.10995   4.11156
  Beta virt. eigenvalues --    4.11355   4.11786   4.16890   4.16932   4.27379
  Beta virt. eigenvalues --    4.28087   4.40956   4.81016   4.98768   4.99380
  Beta virt. eigenvalues --    5.47587   6.67483   6.67483   6.98333   6.98333
  Beta virt. eigenvalues --    7.44868   7.45102   7.51254   8.10378   8.56060
  Beta virt. eigenvalues --    8.56193   8.66270   8.66270   9.21291   9.21413
  Beta virt. eigenvalues --    9.39243   9.97244  14.86039
          Condensed to atoms (all electrons):
               1          2
     1  B    4.613409   0.239448
     2  H    0.239448   0.907695
          Atomic-Atomic Spin Densities.
               1          2
     1  B    0.000000   0.000000
     2  H    0.000000   0.000000
 Mulliken charges and spin densities:
               1          2
     1  B    0.147143   0.000000
     2  H   -0.147143   0.000000
 Sum of Mulliken charges =  -0.00000   0.00000
 Mulliken charges and spin densities with hydrogens summed into heavy atoms:
               1          2
     1  B   -0.000000   0.000000
 Electronic spatial extent (au):  <R**2>=             23.8680
 Charge=              0.0000 electrons
 Dipole moment (field-independent basis, Debye):
    X=              0.0000    Y=              0.0000    Z=             -0.7984  Tot=              0.7984
 Quadrupole moment (field-independent basis, Debye-Ang):
   XX=             -6.6051   YY=             -7.4940   ZZ=            -10.1590
   XY=              0.0000   XZ=              0.0000   YZ=              0.0000
 Traceless Quadrupole moment (field-independent basis, Debye-Ang):
   XX=              1.4809   YY=              0.5920   ZZ=             -2.0730
   XY=              0.0000   XZ=              0.0000   YZ=              0.0000
 Octapole moment (field-independent basis, Debye-Ang**2):
  XXX=              0.0000  YYY=              0.0000  ZZZ=             -3.4626  XYY=              0.0000
  XXY=              0.0000  XXZ=             -0.6893  XZZ=             -0.0000  YZZ=              0.0000
  YYZ=             -1.0765  XYZ=              0.0000
 Hexadecapole moment (field-independent basis, Debye-Ang**3):
 XXXX=             -9.0081 YYYY=            -11.4960 ZZZZ=            -30.4715 XXXY=              0.0000
 XXXZ=              0.0000 YYYX=              0.0000 YYYZ=              0.0000 ZZZX=              0.0000
 ZZZY=              0.0000 XXYY=             -3.4173 XXZZ=             -6.7851 YYZZ=             -7.3465
 XXYZ=              0.0000 YYXZ=              0.0000 ZZXY=              0.0000
 N-N= 1.889918610429D+00 E-N=-6.167686792975D+01  KE= 2.498971873383D+01
 Symmetry A1   KE= 2.479328270593D+01
 Symmetry A2   KE= 5.851894394816D-30
 Symmetry B1   KE= 2.026242968931D-29
 Symmetry B2   KE= 1.964360278979D-01
 Symmetry A1   SP= 0.000000000000D+00
 Symmetry A2   SP= 0.000000000000D+00
 Symmetry B1   SP= 0.000000000000D+00
 Symmetry B2   SP= 0.000000000000D+00
                          Isotropic Fermi Contact Couplings
        Atom                 a.u.       MegaHertz       Gauss      10(-4) cm-1
     1  B(11)              0.00000       0.00000       0.00000       0.00000
     2  H(1)               0.00000       0.00000       0.00000       0.00000
 --------------------------------------------------------
       Center         ----  Spin Dipole Couplings  ----
                      3XX-RR        3YY-RR        3ZZ-RR
 --------------------------------------------------------
     1   Atom        0.000000      0.000000      0.000000
     2   Atom        0.000000      0.000000      0.000000
 --------------------------------------------------------
                        XY            XZ            YZ
 --------------------------------------------------------
     1   Atom        0.000000      0.000000      0.384914
     2   Atom       -0.000000      0.000000     -0.001127
 --------------------------------------------------------


 ---------------------------------------------------------------------------------
              Anisotropic Spin Dipole Couplings in Principal Axis System
 ---------------------------------------------------------------------------------

       Atom             a.u.   MegaHertz   Gauss  10(-4) cm-1        Axes

              Baa    -0.3849   -65.903   -23.516   -21.983 -0.0000  0.7071 -0.7071
     1 B(11)  Bbb     0.0000     0.000     0.000     0.000  1.0000  0.0000 -0.0000
              Bcc     0.3849    65.903    23.516    21.983  0.0000  0.7071  0.7071
 
              Baa    -0.0011    -0.601    -0.215    -0.201  0.0000  0.7071  0.7071
     2 H(1)   Bbb    -0.0000    -0.000    -0.000    -0.000  1.0000 -0.0000 -0.0000
              Bcc     0.0011     0.601     0.215     0.201 -0.0000  0.7071 -0.7071
 

 ---------------------------------------------------------------------------------

 No NMR shielding tensors so no spin-rotation constants.
 Leave Link  601 at Sun May 22 10:54:46 2022, MaxMem=   104857600 cpu:               0.2 elap:               0.2
 (Enter /apps/software/g16/l801.exe)
 Range of M.O.s used for correlation:     1   126
 NBasis=   126 NAE=     3 NBE=     3 NFC=     0 NFV=     0
 NROrb=    126 NOA=     3 NOB=     3 NVA=   123 NVB=   123

 **** Warning!!: The largest alpha MO coefficient is  0.22374201D+02


 **** Warning!!: The largest beta MO coefficient is  0.22374201D+02

 Leave Link  801 at Sun May 22 10:54:46 2022, MaxMem=   104857600 cpu:               0.0 elap:               0.0
 (Enter /apps/software/g16/l914.exe)
 UHF ground state
 Doing stability rather than CIS.
 Keep R1 and R2 ints in memory in symmetry-blocked form, NReq=40144005.
 FoFCou: FMM=F IPFlag=           0 FMFlag=           0 FMFlg1=           0
         NFxFlg=           0 DoJE=F BraDBF=F KetDBF=F FulRan=T
         wScrn=  0.000000 ICntrl=       600 IOpCl=  0 I1Cent=           0 NGrid=           0
         NMat0=    1 NMatS0=   8001 NMatT0=    0 NMatD0=    1 NMtDS0=    0 NMtDT0=    0
 Petite list used in FoFCou.
 MDV=   104857600 DFT=F DoStab=T Mixed=F DoRPA=F DoScal=F NonHer=F
 Making orbital integer symmetry assigments:
 Orbital symmetries:
 Alpha Orbitals:
       Occupied  (SG) (?A) (?A)
       Virtual   (?A) (?A) (?A) (?A) (?A) (?A) (?A) (?B) (?B) (?B)
                 (?B) (?B) (?A) (?C) (?C) (?C) (?A) (?A) (?A) (?A)
                 (?A) (?A) (?A) (?A) (?A) (?A) (?A) (?A) (SG) (SG)
                 (PI) (PI) (SG) (PI) (PI) (DLTA) (DLTA) (SG) (?D)
                 (?D) (?D) (?D) (?D) (?E) (?F) (?F) (?F) (?F) (?E)
                 (?E) (?E) (?E) (?E) (?E) (?E) (?E) (?E) (?E) (?E)
                 (?E) (?E) (?E) (SG) (?G) (?G) (?G) (?G) (SG) (DLTA)
                 (DLTA) (PI) (PI) (SG) (SG) (DLTA) (DLTA) (PI)
                 (PI) (SG) (PI) (PI) (SG) (PI) (PI) (?F) (?F) (?F)
                 (?F) (DLTA) (DLTA) (?H) (?H) (?H) (?H) (?H) (?H)
                 (?H) (?H) (?H) (PI) (PI) (SG) (SG) (PI) (PI) (SG)
                 (PHI) (PHI) (DLTA) (DLTA) (PI) (PI) (SG) (SG)
                 (PI) (PI) (DLTA) (DLTA) (PI) (PI) (SG) (SG) (SG)
 Beta  Orbitals:
       Occupied  (SG) (?A) (?A)
       Virtual   (?A) (?A) (?A) (?A) (?A) (?A) (?A) (?B) (?B) (?B)
                 (?B) (?B) (?A) (?C) (?C) (?C) (?A) (?A) (?A) (?A)
                 (?A) (?A) (?A) (?A) (?A) (?A) (?A) (?A) (SG) (SG)
                 (PI) (PI) (SG) (PI) (PI) (DLTA) (DLTA) (SG) (?D)
                 (?D) (?D) (?D) (?D) (?E) (?F) (?F) (?F) (?F) (?E)
                 (?E) (?E) (?E) (?E) (?E) (?E) (?E) (?E) (?E) (?E)
                 (?E) (?E) (?E) (SG) (?G) (?G) (?G) (?G) (SG) (DLTA)
                 (DLTA) (PI) (PI) (SG) (SG) (DLTA) (DLTA) (PI)
                 (PI) (SG) (PI) (PI) (SG) (PI) (PI) (?F) (?F) (?F)
                 (?F) (DLTA) (DLTA) (?H) (?H) (?H) (?H) (?H) (?H)
                 (?H) (?H) (?H) (PI) (PI) (SG) (SG) (PI) (PI) (SG)
                 (PHI) (PHI) (DLTA) (DLTA) (PI) (PI) (SG) (SG)
                 (PI) (PI) (DLTA) (DLTA) (PI) (PI) (SG) (SG) (SG)
    12 initial guesses have been made.
 Convergence on wavefunction:    0.001000000000000
 Davidson Disk Diagonalization:  ConvIn= 1.00D-03 SkipCon=T Conv= 1.00D-03.
 Max sub-space:  1476 roots to seek:    12 dimension of matrix:          738
 Iteration     1 Dimension    12 NMult     0 NNew     12
 CISAX will form    12 AO SS matrices at one time.
 NMat=    12 NSing=    12 JSym2X= 2.
 Excitation Energies [eV] at current iteration:
 Root      1 :     0.569733774129011
 Root      2 :     2.565568456233684
 Root      3 :     3.654544381297891
 Root      4 :     4.199434188379230
 Root      5 :     6.091027243598926
 Root      6 :     6.565732646862737
 Root      7 :     6.703480393473004
 Root      8 :     7.088041280122814
 Root      9 :     7.663678417477414
 Root     10 :    11.030538231749095
 Root     11 :    12.820287065920025
 Root     12 :    13.160699364884424
 Iteration     2 Dimension    24 NMult    12 NNew     12
 CISAX will form    12 AO SS matrices at one time.
 NMat=    12 NSing=    12 JSym2X= 2.
 Root      1 not converged, maximum delta is    0.049474836939639
 Excitation Energies [eV] at current iteration:
 Root      1 :     0.011655104987543   Change is   -0.558078669141468
 Root      2 :     1.981323076581905   Change is   -0.584245379651779
 Root      3 :     2.999004849409322   Change is   -0.655539531888568
 Root      4 :     3.650021833797244   Change is   -0.549412354581986
 Root      5 :     4.951080664091723   Change is   -1.139946579507203
 Root      6 :     5.596962658824149   Change is   -0.968769988038588
 Root      7 :     6.370635312368522   Change is   -0.332845081104483
 Root      8 :     6.418015077083728   Change is   -0.670026203039085
 Root      9 :     7.041216911627478   Change is   -0.622461505849937
 Root     10 :     8.264529135164986   Change is   -2.766009096584108
 Root     11 :     9.829073094499247   Change is   -3.331626270385177
 Root     12 :    10.409304358388928   Change is   -2.410982707531098
 Iteration     3 Dimension    27 NMult    24 NNew      3
 CISAX will form     3 AO SS matrices at one time.
 NMat=     3 NSing=     3 JSym2X= 2.
 Root      1 not converged, maximum delta is    0.008597615708329
 Excitation Energies [eV] at current iteration:
 Root      1 :     0.000159735687999   Change is   -0.011495369299544
 Root      2 :     1.961664132409518   Change is   -0.019658944172387
 Root      3 :     2.953984946772286   Change is   -0.045019902637036
 Iteration     4 Dimension    30 NMult    27 NNew      3
 CISAX will form     3 AO SS matrices at one time.
 NMat=     3 NSing=     3 JSym2X= 2.
 Root      1 not converged, maximum delta is    0.001095871581684
 Excitation Energies [eV] at current iteration:
 Root      1 :     0.000001867652805   Change is   -0.000157868035194
 Root      2 :     1.961155448900715   Change is   -0.000508683508803
 Root      3 :     2.947847266407131   Change is   -0.006137680365155
 Iteration     5 Dimension    33 NMult    30 NNew      3
 CISAX will form     3 AO SS matrices at one time.
 NMat=     3 NSing=     3 JSym2X= 2.
 Root      1 has converged.
 Excitation Energies [eV] at current iteration:
 Root      1 :     0.000000190312362   Change is   -0.000001677340443
 Root      2 :     1.961145433851689   Change is   -0.000010015049026
 Root      3 :     2.947468144047181   Change is   -0.000379122359950
 Convergence achieved on expansion vectors.
 ***********************************************************************
 Stability analysis using <AA,BB:AA,BB> singles matrix:
 ***********************************************************************
 1PDM for each excited state written to RWF  633
 Ground to excited state transition densities written to RWF  633

 Eigenvectors of the stability matrix:
 
 Excited state symmetry could not be determined.
 Eigenvector   1:  2.828-?Sym  Eigenvalue= 0.0000000  <S**2>=1.750
      2A ->  4A        0.10816
      2A ->  8A       -0.12637
      3A ->  4A        0.43622
      3A ->  8A       -0.45685
      3A -> 21A        0.22469
      2B ->  4B       -0.10816
      2B ->  8B        0.12637
      3B ->  4B       -0.43622
      3B ->  8B        0.45685
      3B -> 21B       -0.22469
 The wavefunction is stable under the perturbations considered.
 Leave Link  914 at Sun May 22 10:54:50 2022, MaxMem=   104857600 cpu:               4.1 elap:               4.1
 (Enter /apps/software/g16/l508.exe)
 The wavefunction is already stable.
 Leave Link  508 at Sun May 22 10:54:50 2022, MaxMem=   104857600 cpu:               0.0 elap:               0.0
 (Enter /apps/software/g16/l601.exe)
 Copying SCF densities to generalized density rwf, IOpCl= 1 IROHF=0.
 SCF density gives NOpUse=  1 NOpAll=  4.
 Marking SCF density as not fully symmetric.

 **********************************************************************

            Population analysis using the SCF density.

 **********************************************************************

 Orbital symmetries:
 Alpha Orbitals:
       Occupied  (SG) (?A) (?A)
       Virtual   (?A) (?A) (?A) (?A) (?A) (?A) (?A) (?B) (?B) (?B)
                 (?B) (?B) (?A) (?C) (?C) (?C) (?A) (?A) (?A) (?A)
                 (?A) (?A) (?A) (?A) (?A) (?A) (?A) (?A) (SG) (SG)
                 (PI) (PI) (SG) (PI) (PI) (DLTA) (DLTA) (SG) (?D)
                 (?D) (?D) (?D) (?D) (?E) (?F) (?F) (?F) (?F) (?E)
                 (?E) (?E) (?E) (?E) (?E) (?E) (?E) (?E) (?E) (?E)
                 (?E) (?E) (?E) (SG) (?G) (?G) (?G) (?G) (SG) (DLTA)
                 (DLTA) (PI) (PI) (SG) (SG) (DLTA) (DLTA) (PI)
                 (PI) (SG) (PI) (PI) (SG) (PI) (PI) (?F) (?F) (?F)
                 (?F) (DLTA) (DLTA) (?H) (?H) (?H) (?H) (?H) (?H)
                 (?H) (?H) (?H) (PI) (PI) (SG) (SG) (PI) (PI) (SG)
                 (PHI) (PHI) (DLTA) (DLTA) (PI) (PI) (SG) (SG)
                 (PI) (PI) (DLTA) (DLTA) (PI) (PI) (SG) (SG) (SG)
 Beta  Orbitals:
       Occupied  (SG) (?A) (?A)
       Virtual   (?A) (?A) (?A) (?A) (?A) (?A) (?A) (?B) (?B) (?B)
                 (?B) (?B) (?A) (?C) (?C) (?C) (?A) (?A) (?A) (?A)
                 (?A) (?A) (?A) (?A) (?A) (?A) (?A) (?A) (SG) (SG)
                 (PI) (PI) (SG) (PI) (PI) (DLTA) (DLTA) (SG) (?D)
                 (?D) (?D) (?D) (?D) (?E) (?F) (?F) (?F) (?F) (?E)
                 (?E) (?E) (?E) (?E) (?E) (?E) (?E) (?E) (?E) (?E)
                 (?E) (?E) (?E) (SG) (?G) (?G) (?G) (?G) (SG) (DLTA)
                 (DLTA) (PI) (PI) (SG) (SG) (DLTA) (DLTA) (PI)
                 (PI) (SG) (PI) (PI) (SG) (PI) (PI) (?F) (?F) (?F)
                 (?F) (DLTA) (DLTA) (?H) (?H) (?H) (?H) (?H) (?H)
                 (?H) (?H) (?H) (PI) (PI) (SG) (SG) (PI) (PI) (SG)
                 (PHI) (PHI) (DLTA) (DLTA) (PI) (PI) (SG) (SG)
                 (PI) (PI) (DLTA) (DLTA) (PI) (PI) (SG) (SG) (SG)
 Unable to determine electronic state:  an orbital has unidentified symmetry.
 Alpha  occ. eigenvalues --   -7.69780  -0.60563  -0.37017
 Alpha virt. eigenvalues --    0.02448   0.02888   0.03357   0.04583   0.07909
 Alpha virt. eigenvalues --    0.08418   0.11038   0.13622   0.13754   0.14608
 Alpha virt. eigenvalues --    0.14613   0.14823   0.19624   0.25343   0.27224
 Alpha virt. eigenvalues --    0.27344   0.31098   0.31282   0.37611   0.40010
 Alpha virt. eigenvalues --    0.45973   0.45974   0.46243   0.46243   0.47896
 Alpha virt. eigenvalues --    0.48209   0.50143   0.50168   0.53305   0.54811
 Alpha virt. eigenvalues --    0.57732   0.57995   0.73080   0.78439   0.78617
 Alpha virt. eigenvalues --    0.80680   0.80682   0.81675   1.01406   1.01473
 Alpha virt. eigenvalues --    1.16324   1.20185   1.20527   1.33512   1.36586
 Alpha virt. eigenvalues --    1.36586   1.37170   1.37170   1.38815   1.38823
 Alpha virt. eigenvalues --    1.41948   1.42082   1.42673   1.43840   1.43899
 Alpha virt. eigenvalues --    1.45630   1.45667   1.52646   1.55665   1.56228
 Alpha virt. eigenvalues --    1.60244   1.60250   1.66714   1.84406   1.84410
 Alpha virt. eigenvalues --    1.85139   1.85456   1.94390   2.11157   2.11158
 Alpha virt. eigenvalues --    2.17140   2.17533   2.30331   2.42209   2.87275
 Alpha virt. eigenvalues --    2.87276   3.00222   3.00507   3.22275   3.30331
 Alpha virt. eigenvalues --    3.30676   3.37473   3.86145   3.86861   3.92163
 Alpha virt. eigenvalues --    3.92163   3.94096   3.94096   3.98477   3.98482
 Alpha virt. eigenvalues --    4.09189   4.09189   4.10618   4.10995   4.11156
 Alpha virt. eigenvalues --    4.11355   4.11786   4.16890   4.16932   4.27379
 Alpha virt. eigenvalues --    4.28087   4.40956   4.81016   4.98768   4.99380
 Alpha virt. eigenvalues --    5.47587   6.67483   6.67483   6.98333   6.98333
 Alpha virt. eigenvalues --    7.44868   7.45102   7.51254   8.10378   8.56060
 Alpha virt. eigenvalues --    8.56193   8.66270   8.66270   9.21291   9.21413
 Alpha virt. eigenvalues --    9.39243   9.97244  14.86039
  Beta  occ. eigenvalues --   -7.69780  -0.60563  -0.37017
  Beta virt. eigenvalues --    0.02448   0.02888   0.03357   0.04583   0.07909
  Beta virt. eigenvalues --    0.08418   0.11038   0.13622   0.13754   0.14608
  Beta virt. eigenvalues --    0.14613   0.14823   0.19624   0.25343   0.27224
  Beta virt. eigenvalues --    0.27344   0.31098   0.31282   0.37611   0.40010
  Beta virt. eigenvalues --    0.45973   0.45974   0.46243   0.46243   0.47896
  Beta virt. eigenvalues --    0.48209   0.50143   0.50168   0.53305   0.54811
  Beta virt. eigenvalues --    0.57732   0.57995   0.73080   0.78439   0.78617
  Beta virt. eigenvalues --    0.80680   0.80682   0.81675   1.01406   1.01473
  Beta virt. eigenvalues --    1.16324   1.20185   1.20527   1.33512   1.36586
  Beta virt. eigenvalues --    1.36586   1.37170   1.37170   1.38815   1.38823
  Beta virt. eigenvalues --    1.41948   1.42082   1.42673   1.43840   1.43899
  Beta virt. eigenvalues --    1.45630   1.45667   1.52646   1.55665   1.56228
  Beta virt. eigenvalues --    1.60244   1.60250   1.66714   1.84406   1.84410
  Beta virt. eigenvalues --    1.85139   1.85456   1.94390   2.11157   2.11158
  Beta virt. eigenvalues --    2.17140   2.17533   2.30331   2.42209   2.87275
  Beta virt. eigenvalues --    2.87276   3.00222   3.00507   3.22275   3.30331
  Beta virt. eigenvalues --    3.30676   3.37473   3.86145   3.86861   3.92163
  Beta virt. eigenvalues --    3.92163   3.94096   3.94096   3.98477   3.98482
  Beta virt. eigenvalues --    4.09189   4.09189   4.10618   4.10995   4.11156
  Beta virt. eigenvalues --    4.11355   4.11786   4.16890   4.16932   4.27379
  Beta virt. eigenvalues --    4.28087   4.40956   4.81016   4.98768   4.99380
  Beta virt. eigenvalues --    5.47587   6.67483   6.67483   6.98333   6.98333
  Beta virt. eigenvalues --    7.44868   7.45102   7.51254   8.10378   8.56060
  Beta virt. eigenvalues --    8.56193   8.66270   8.66270   9.21291   9.21413
  Beta virt. eigenvalues --    9.39243   9.97244  14.86039
          Condensed to atoms (all electrons):
               1          2
     1  B    4.613409   0.239448
     2  H    0.239448   0.907695
          Atomic-Atomic Spin Densities.
               1          2
     1  B    0.000000   0.000000
     2  H    0.000000   0.000000
 Mulliken charges and spin densities:
               1          2
     1  B    0.147143   0.000000
     2  H   -0.147143   0.000000
 Sum of Mulliken charges =  -0.00000   0.00000
 Mulliken charges and spin densities with hydrogens summed into heavy atoms:
               1          2
     1  B   -0.000000   0.000000
 Electronic spatial extent (au):  <R**2>=             23.8680
 Charge=              0.0000 electrons
 Dipole moment (field-independent basis, Debye):
    X=              0.0000    Y=              0.0000    Z=             -0.7984  Tot=              0.7984
 Quadrupole moment (field-independent basis, Debye-Ang):
   XX=             -6.6051   YY=             -7.4940   ZZ=            -10.1590
   XY=              0.0000   XZ=              0.0000   YZ=              0.0000
 Traceless Quadrupole moment (field-independent basis, Debye-Ang):
   XX=              1.4809   YY=              0.5920   ZZ=             -2.0730
   XY=              0.0000   XZ=              0.0000   YZ=              0.0000
 Octapole moment (field-independent basis, Debye-Ang**2):
  XXX=              0.0000  YYY=              0.0000  ZZZ=             -3.4626  XYY=              0.0000
  XXY=              0.0000  XXZ=             -0.6893  XZZ=             -0.0000  YZZ=              0.0000
  YYZ=             -1.0765  XYZ=              0.0000
 Hexadecapole moment (field-independent basis, Debye-Ang**3):
 XXXX=             -9.0081 YYYY=            -11.4960 ZZZZ=            -30.4715 XXXY=              0.0000
 XXXZ=              0.0000 YYYX=              0.0000 YYYZ=              0.0000 ZZZX=              0.0000
 ZZZY=              0.0000 XXYY=             -3.4173 XXZZ=             -6.7851 YYZZ=             -7.3465
 XXYZ=              0.0000 YYXZ=              0.0000 ZZXY=              0.0000
 N-N= 1.889918610429D+00 E-N=-6.167686792975D+01  KE= 2.498971873383D+01
 Symmetry A1   KE= 2.479328270593D+01
 Symmetry A2   KE= 5.851894394816D-30
 Symmetry B1   KE= 2.026242968931D-29
 Symmetry B2   KE= 1.964360278979D-01
 Symmetry A1   SP= 0.000000000000D+00
 Symmetry A2   SP= 0.000000000000D+00
 Symmetry B1   SP= 0.000000000000D+00
 Symmetry B2   SP= 0.000000000000D+00
                          Isotropic Fermi Contact Couplings
        Atom                 a.u.       MegaHertz       Gauss      10(-4) cm-1
     1  B(11)              0.00000       0.00000       0.00000       0.00000
     2  H(1)               0.00000       0.00000       0.00000       0.00000
 --------------------------------------------------------
       Center         ----  Spin Dipole Couplings  ----
                      3XX-RR        3YY-RR        3ZZ-RR
 --------------------------------------------------------
     1   Atom        0.000000      0.000000      0.000000
     2   Atom        0.000000      0.000000      0.000000
 --------------------------------------------------------
                        XY            XZ            YZ
 --------------------------------------------------------
     1   Atom        0.000000      0.000000      0.384914
     2   Atom       -0.000000      0.000000     -0.001127
 --------------------------------------------------------


 ---------------------------------------------------------------------------------
              Anisotropic Spin Dipole Couplings in Principal Axis System
 ---------------------------------------------------------------------------------

       Atom             a.u.   MegaHertz   Gauss  10(-4) cm-1        Axes

              Baa    -0.3849   -65.903   -23.516   -21.983 -0.0000  0.7071 -0.7071
     1 B(11)  Bbb     0.0000     0.000     0.000     0.000  1.0000  0.0000 -0.0000
              Bcc     0.3849    65.903    23.516    21.983  0.0000  0.7071  0.7071
 
              Baa    -0.0011    -0.601    -0.215    -0.201  0.0000  0.7071  0.7071
     2 H(1)   Bbb    -0.0000    -0.000    -0.000    -0.000  1.0000 -0.0000 -0.0000
              Bcc     0.0011     0.601     0.215     0.201 -0.0000  0.7071 -0.7071
 

 ---------------------------------------------------------------------------------

 No NMR shielding tensors so no spin-rotation constants.
 Leave Link  601 at Sun May 22 10:54:51 2022, MaxMem=   104857600 cpu:               0.2 elap:               0.2
 (Enter /apps/software/g16/l9999.exe)
 1\1\GINC-CNODE08\Stability\UHF\Aug-CC-pVQZ\B1H1\LCZ\22-May-2022\0\\#p 
 UHF/aug-cc-pVQZ guess=mix stable=opt\\BH UHF at 1.4 Angstrom\\0,1\B,0,
 0.,0.,0.\H,0,1.4,0.,0.\\Version=ES64L-G16RevA.03\HF=-25.1272644\S2=0.4
 36313\S2-1=0.\S2A=0.005185\RMSD=8.586e-10\Dipole=0.3141077,0.,0.\Quadr
 upole=-1.5412011,0.4401549,1.1010462,0.,0.,0.\PG=C*V [C*(H1B1)]\\@


 WHEN YOU'VE SEEN ONE NUCLEAR WAR YOU'VE SEEN THEM ALL.
 Job cpu time:       0 days  0 hours  0 minutes  9.0 seconds.
 Elapsed time:       0 days  0 hours  0 minutes  9.0 seconds.
 File lengths (MBytes):  RWF=     29 Int=      0 D2E=      0 Chk=      4 Scr=      1
 Normal termination of Gaussian 16 at Sun May 22 10:54:51 2022.

Sender: Unischeduler System <lcz@mgt01>
Subject: Job 133833: <#!/bin/bash
#BSUB -J intel
#BSUB -o BH-1.4-UHF-G.out
#BSUB -n 8
#BSUB -q cqueue
#BSUB -R span[hosts=1]
export g16root=/apps/software
source /apps/software/g16/bsd/g16.profile
export GAUSS_SCRDIR=/scratch
/apps/software/g16/g16 < BH-1.4-UHF-G.inp > BH-1.4-UHF-G.out> Done

Job <#!/bin/bash
#BSUB -J intel
#BSUB -o BH-1.4-UHF-G.out
#BSUB -n 8
#BSUB -q cqueue
#BSUB -R span[hosts=1]
export g16root=/apps/software
source /apps/software/g16/bsd/g16.profile
export GAUSS_SCRDIR=/scratch
/apps/software/g16/g16 < BH-1.4-UHF-G.inp > BH-1.4-UHF-G.out> was submitted from host <mgt01> by user <lcz>.
Job was executed on host(s) <8*cnode08>, in queue <cqueue>, as user <lcz>.
</apps/users/lcz> was used as the home directory.
</apps/users/lcz/exe13/UMP2> was used as the working directory.
Started at 2022-05-22 10:54:42
Results reported at 2022-05-22 10:54:51

Your job looked like:

------------------------------------------------------------
# User input
#!/bin/bash
#BSUB -J intel
#BSUB -o BH-1.4-UHF-G.out
#BSUB -n 8
#BSUB -q cqueue
#BSUB -R span[hosts=1]
export g16root=/apps/software
source /apps/software/g16/bsd/g16.profile
export GAUSS_SCRDIR=/scratch
/apps/software/g16/g16 < BH-1.4-UHF-G.inp > BH-1.4-UHF-G.out
------------------------------------------------------------

Successfully completed.

Resource usage summary:

    CPU time   :            1.57 sec.
    Max Memory :               456 MB
    Max Processes  :               5


The output (if any) follows:

