 Entering Gaussian System, Link 0=/apps/software/g16/g16
 Initial command:
 /apps/software/g16/l1.exe "/scratch/Gau-109635.inp" -scrdir="/scratch/"
 Entering Link 1 = /apps/software/g16/l1.exe PID=    109636.
  
 Copyright (c) 1988,1990,1992,1993,1995,1998,2003,2009,2016,
            Gaussian, Inc.  All Rights Reserved.
  
 This is part of the Gaussian(R) 16 program.  It is based on
 the Gaussian(R) 09 system (copyright 2009, Gaussian, Inc.),
 the Gaussian(R) 03 system (copyright 2003, Gaussian, Inc.),
 the Gaussian(R) 98 system (copyright 1998, Gaussian, Inc.),
 the Gaussian(R) 94 system (copyright 1995, Gaussian, Inc.),
 the Gaussian 92(TM) system (copyright 1992, Gaussian, Inc.),
 the Gaussian 90(TM) system (copyright 1990, Gaussian, Inc.),
 the Gaussian 88(TM) system (copyright 1988, Gaussian, Inc.),
 the Gaussian 86(TM) system (copyright 1986, Carnegie Mellon
 University), and the Gaussian 82(TM) system (copyright 1983,
 Carnegie Mellon University). Gaussian is a federally registered
 trademark of Gaussian, Inc.
  
 This software contains proprietary and confidential information,
 including trade secrets, belonging to Gaussian, Inc.
  
 This software is provided under written license and may be
 used, copied, transmitted, or stored only in accord with that
 written license.
  
 The following legend is applicable only to US Government
 contracts under FAR:
  
                    RESTRICTED RIGHTS LEGEND
  
 Use, reproduction and disclosure by the US Government is
 subject to restrictions as set forth in subparagraphs (a)
 and (c) of the Commercial Computer Software - Restricted
 Rights clause in FAR 52.227-19.
  
 Gaussian, Inc.
 340 Quinnipiac St., Bldg. 40, Wallingford CT 06492
  
  
 ---------------------------------------------------------------
 Warning -- This program may not be used in any manner that
 competes with the business of Gaussian, Inc. or will provide
 assistance to any competitor of Gaussian, Inc.  The licensee
 of this program is prohibited from giving any competitor of
 Gaussian, Inc. access to this program.  By using this program,
 the user acknowledges that Gaussian, Inc. is engaged in the
 business of creating and licensing software in the field of
 computational chemistry and represents and warrants to the
 licensee that it is not a competitor of Gaussian, Inc. and that
 it will not use this program in any manner prohibited above.
 ---------------------------------------------------------------
  

 Cite this work as:
 Gaussian 16, Revision A.03,
 M. J. Frisch, G. W. Trucks, H. B. Schlegel, G. E. Scuseria, 
 M. A. Robb, J. R. Cheeseman, G. Scalmani, V. Barone, 
 G. A. Petersson, H. Nakatsuji, X. Li, M. Caricato, A. V. Marenich, 
 J. Bloino, B. G. Janesko, R. Gomperts, B. Mennucci, H. P. Hratchian, 
 J. V. Ortiz, A. F. Izmaylov, J. L. Sonnenberg, D. Williams-Young, 
 F. Ding, F. Lipparini, F. Egidi, J. Goings, B. Peng, A. Petrone, 
 T. Henderson, D. Ranasinghe, V. G. Zakrzewski, J. Gao, N. Rega, 
 G. Zheng, W. Liang, M. Hada, M. Ehara, K. Toyota, R. Fukuda, 
 J. Hasegawa, M. Ishida, T. Nakajima, Y. Honda, O. Kitao, H. Nakai, 
 T. Vreven, K. Throssell, J. A. Montgomery, Jr., J. E. Peralta, 
 F. Ogliaro, M. J. Bearpark, J. J. Heyd, E. N. Brothers, K. N. Kudin, 
 V. N. Staroverov, T. A. Keith, R. Kobayashi, J. Normand, 
 K. Raghavachari, A. P. Rendell, J. C. Burant, S. S. Iyengar, 
 J. Tomasi, M. Cossi, J. M. Millam, M. Klene, C. Adamo, R. Cammi, 
 J. W. Ochterski, R. L. Martin, K. Morokuma, O. Farkas, 
 J. B. Foresman, and D. J. Fox, Gaussian, Inc., Wallingford CT, 2016.
 
 ******************************************
 Gaussian 16:  ES64L-G16RevA.03 25-Dec-2016
                22-May-2022 
 ******************************************
 %oldchk=BH-1.0-UHF-G.chk
 %chk=BH-1.0-UMP2-G.chk
 Copying data from "BH-1.0-UHF-G.chk" to current chk file "BH-1.0-UMP2-G.chk"
 IOpt=  2 FromEx=T IUOpen= 4 IOptOp= 5 NList=   0 IFRang= 0 IUIn= 4 IUOut= 2.
 ------------------------------------
 #p UHF/aug-cc-pVQZ MP2=FC guess=read
 ------------------------------------
 1/38=1,172=1/1;
 2/12=2,17=6,18=5,40=1/2;
 3/5=16,6=2,7=10,11=2,25=1,30=1,116=2/1,2,3;
 4/5=1/1;
 5/5=2,38=6/2;
 8/10=1/1;
 9/16=-3/6;
 6/7=2,8=2,9=2,10=2/1;
 99/5=1,9=1/99;
 Leave Link    1 at Sun May 22 10:56:56 2022, MaxMem=   104857600 cpu:               0.0 elap:               0.0
 (Enter /apps/software/g16/l101.exe)
 ----------------------
 BH UHF at 1.0 Angstrom
 ----------------------
 Symbolic Z-matrix:
 Charge =  0 Multiplicity = 1
 B                     0.        0.        0. 
 H                     1.        0.        0. 
 
 ITRead=  0  0
 MicOpt= -1 -1
 NAtoms=      2 NQM=        2 NQMF=       0 NMMI=      0 NMMIF=      0
                NMic=       0 NMicF=      0.
                    Isotopes and Nuclear Properties:
 (Nuclear quadrupole moments (NQMom) in fm**2, nuclear magnetic moments (NMagM)
  in nuclear magnetons)

  Atom         1           2
 IAtWgt=          11           1
 AtmWgt=  11.0093053   1.0078250
 NucSpn=           3           1
 AtZEff=  -0.0000000  -0.0000000
 NQMom=    4.0590000   0.0000000
 NMagM=    2.6886370   2.7928460
 AtZNuc=   5.0000000   1.0000000
 Leave Link  101 at Sun May 22 10:56:57 2022, MaxMem=   104857600 cpu:               0.1 elap:               0.1
 (Enter /apps/software/g16/l202.exe)
                          Input orientation:                          
 ---------------------------------------------------------------------
 Center     Atomic      Atomic             Coordinates (Angstroms)
 Number     Number       Type             X           Y           Z
 ---------------------------------------------------------------------
      1          5           0        0.000000    0.000000    0.000000
      2          1           0        1.000000    0.000000    0.000000
 ---------------------------------------------------------------------
 Stoichiometry    BH
 Framework group  C*V[C*(HB)]
 Deg. of freedom     1
 Full point group                 C*V     NOp   4
 Largest Abelian subgroup         C2V     NOp   4
 Largest concise Abelian subgroup C1      NOp   1
                         Standard orientation:                         
 ---------------------------------------------------------------------
 Center     Atomic      Atomic             Coordinates (Angstroms)
 Number     Number       Type             X           Y           Z
 ---------------------------------------------------------------------
      1          5           0        0.000000    0.000000    0.166667
      2          1           0        0.000000    0.000000   -0.833333
 ---------------------------------------------------------------------
 Rotational constants (GHZ):           0.0000000         547.3598183         547.3598183
 Leave Link  202 at Sun May 22 10:56:57 2022, MaxMem=   104857600 cpu:               0.0 elap:               0.0
 (Enter /apps/software/g16/l301.exe)
 Standard basis: Aug-CC-pVQZ (5D, 7F)
 Ernie: Thresh=  0.10000D-02 Tol=  0.10000D-05 Strict=F.
 Ernie:  4 primitive shells out of 54 were deleted.
 There are    68 symmetry adapted cartesian basis functions of A1  symmetry.
 There are    18 symmetry adapted cartesian basis functions of A2  symmetry.
 There are    37 symmetry adapted cartesian basis functions of B1  symmetry.
 There are    37 symmetry adapted cartesian basis functions of B2  symmetry.
 There are    50 symmetry adapted basis functions of A1  symmetry.
 There are    16 symmetry adapted basis functions of A2  symmetry.
 There are    30 symmetry adapted basis functions of B1  symmetry.
 There are    30 symmetry adapted basis functions of B2  symmetry.
   126 basis functions,   180 primitive gaussians,   160 cartesian basis functions
     3 alpha electrons        3 beta electrons
       nuclear repulsion energy         2.6458860546 Hartrees.
 IExCor=    0 DFT=F Ex=HF Corr=None ExCW=0 ScaHFX=  1.000000
 ScaDFX=  1.000000  1.000000  1.000000  1.000000 ScalE2=  1.000000  1.000000
 IRadAn=      5 IRanWt=     -1 IRanGd=            0 ICorTp=0 IEmpDi=  4
 NAtoms=    2 NActive=    2 NUniq=    2 SFac= 1.00D+00 NAtFMM=   60 NAOKFM=F Big=F
 Integral buffers will be    131072 words long.
 Raffenetti 2 integral format.
 Two-electron integral symmetry is turned on.
 Leave Link  301 at Sun May 22 10:56:57 2022, MaxMem=   104857600 cpu:               0.1 elap:               0.1
 (Enter /apps/software/g16/l302.exe)
 NPDir=0 NMtPBC=     1 NCelOv=     1 NCel=       1 NClECP=     1 NCelD=      1
         NCelK=      1 NCelE2=     1 NClLst=     1 CellRange=     0.0.
 One-electron integrals computed using PRISM.
 One-electron integral symmetry used in STVInt
 NBasis=   126 RedAO= T EigKep=  5.99D-05  NBF=    50    16    30    30
 NBsUse=   126 1.00D-06 EigRej= -1.00D+00 NBFU=    50    16    30    30
 Leave Link  302 at Sun May 22 10:56:57 2022, MaxMem=   104857600 cpu:               0.1 elap:               0.1
 (Enter /apps/software/g16/l303.exe)
 DipDrv:  MaxL=1.
 Leave Link  303 at Sun May 22 10:56:57 2022, MaxMem=   104857600 cpu:               0.0 elap:               0.0
 (Enter /apps/software/g16/l401.exe)
 Initial guess from the checkpoint file:  "BH-1.0-UMP2-G.chk"
 B after Tr=     0.000000    0.000000    0.000000
         Rot=    1.000000    0.000000    0.000000    0.000000 Ang=   0.00 deg.
 Guess basis will be translated and rotated to current coordinates.
 JPrj=2 DoOrth=T DoCkMO=T.
 Initial guess orbital symmetries:
 Alpha Orbitals:
       Occupied  (SG) (SG) (?A)
       Virtual   (?A) (?A) (?A) (?A) (?A) (?A) (?A) (?A) (?A) (?A)
                 (?A) (?A) (?A) (?A) (?A) (?A) (?A) (?A) (?A) (?A)
                 (?A) (?A) (?A) (?A) (?A) (?A) (?A) (?A) (?A) (?A)
                 (?A) (?A) (?B) (?B) (?B) (?B) (?B) (SG) (?C) (?C)
                 (?C) (PI) (PI) (?D) (?E) (?E) (?E) (?E) (?D) (?D)
                 (?D) (?D) (?D) (?D) (?D) (?D) (?D) (?F) (?F) (?F)
                 (?F) (?F) (?G) (?G) (?G) (?G) (PHI) (PHI) (DLTA)
                 (DLTA) (SG) (PI) (PI) (SG) (PI) (PI) (?H) (?H)
                 (?H) (DLTA) (DLTA) (SG) (?E) (?E) (?E) (?E) (?I)
                 (?I) (?I) (?I) (?I) (?I) (?I) (?I) (?I) (PI) (PI)
                 (?J) (?J) (?J) (?J) (?J) (SG) (SG) (PI) (PI) (PHI)
                 (PHI) (DLTA) (DLTA) (SG) (PI) (PI) (SG) (DLTA)
                 (DLTA) (PI) (PI) (PI) (PI) (SG) (SG) (SG)
 Beta  Orbitals:
       Occupied  (SG) (SG) (?A)
       Virtual   (?A) (?A) (?A) (?A) (?A) (?A) (?A) (?A) (?A) (?A)
                 (?A) (?A) (?A) (?A) (?A) (?A) (?A) (?A) (?A) (?A)
                 (?A) (?A) (?A) (?A) (?A) (?A) (?A) (?A) (?A) (?A)
                 (?A) (?A) (?B) (?B) (?B) (?B) (?B) (SG) (?C) (?C)
                 (?C) (PI) (PI) (?D) (?E) (?E) (?E) (?E) (?D) (?D)
                 (?D) (?D) (?D) (?D) (?D) (?D) (?D) (?F) (?F) (?F)
                 (?F) (?F) (?G) (?G) (?G) (?G) (PHI) (PHI) (DLTA)
                 (DLTA) (SG) (PI) (PI) (SG) (PI) (PI) (?H) (?H)
                 (?H) (DLTA) (DLTA) (SG) (?E) (?E) (?E) (?E) (?I)
                 (?I) (?I) (?I) (?I) (?I) (?I) (?I) (?I) (PI) (PI)
                 (?J) (?J) (?J) (?J) (?J) (SG) (SG) (PI) (PI) (PHI)
                 (PHI) (DLTA) (DLTA) (SG) (PI) (PI) (SG) (DLTA)
                 (DLTA) (PI) (PI) (PI) (PI) (SG) (SG) (SG)
 Initial guess <Sx>= 0.0000 <Sy>= 0.0000 <Sz>= 0.0000 <S**2>= 0.5282 S= 0.3821
 Leave Link  401 at Sun May 22 10:56:57 2022, MaxMem=   104857600 cpu:               0.1 elap:               0.1
 (Enter /apps/software/g16/l502.exe)
 Keep R1 and R2 ints in memory in symmetry-blocked form, NReq=40143665.
 FoFCou: FMM=F IPFlag=           0 FMFlag=           0 FMFlg1=           0
         NFxFlg=           0 DoJE=F BraDBF=F KetDBF=F FulRan=T
         wScrn=  0.000000 ICntrl=       600 IOpCl=  0 I1Cent=           0 NGrid=           0
         NMat0=    1 NMatS0=   8001 NMatT0=    0 NMatD0=    1 NMtDS0=    0 NMtDT0=    0
 Petite list used in FoFCou.
 UHF open shell SCF:
 Using DIIS extrapolation, IDIIS=  1040.
 NGot=   104857600 LenX=    88563632 LenY=    88537591
 Requested convergence on RMS density matrix=1.00D-08 within 128 cycles.
 Requested convergence on MAX density matrix=1.00D-06.
 Requested convergence on             energy=1.00D-06.
 No special actions if energy rises.
 An orbital has undefined symmetry, so N**3 symmetry is turned off.

 Cycle   1  Pass 1  IDiag  1:
 Density matrix breaks symmetry, PCut= 1.00D-07
 Density matrix has no symmetry -- integrals replicated.
 E= -25.1119454438988    
 DIIS: error= 3.77D-09 at cycle   1 NSaved=   1.
 NSaved= 1 IEnMin= 1 EnMin= -25.1119454438988     IErMin= 1 ErrMin= 3.77D-09
 ErrMax= 3.77D-09  0.00D+00 EMaxC= 1.00D-01 BMatC= 1.12D-15 BMatP= 1.12D-15
 IDIUse=1 WtCom= 1.00D+00 WtEn= 0.00D+00
 Coeff-Com:  0.100D+01
 Coeff:      0.100D+01
 Gap=     0.395 Goal=   None    Shift=    0.000
 Gap=     0.395 Goal=   None    Shift=    0.000
 RMSDP=2.24D-10 MaxDP=3.93D-09              OVMax= 1.49D-08

 Density matrix breaks symmetry, PCut= 1.00D-07
 Density matrix has no symmetry -- integrals replicated.
 SCF Done:  E(UHF) =  -25.1119454439     A.U. after    1 cycles
            NFock=  1  Conv=0.22D-09     -V/T= 1.9883
 <Sx>= 0.0000 <Sy>= 0.0000 <Sz>= 0.0000 <S**2>= 0.5282 S= 0.3821
 <L.S>=  0.00000000000    
 KE= 2.540859256966D+01 PE=-6.348616300019D+01 EE= 1.031973893203D+01
 Annihilation of the first spin contaminant:
 S**2 before annihilation     0.5282,   after     0.0044
 Leave Link  502 at Sun May 22 10:57:01 2022, MaxMem=   104857600 cpu:               3.6 elap:               3.6
 (Enter /apps/software/g16/l801.exe)
 ExpMin= 1.88D-02 ExpMax= 2.39D+04 ExpMxC= 2.30D+02 IAcc=3 IRadAn=         5 AccDes= 0.00D+00
 HarFok:  IExCor=  205 AccDes= 0.00D+00 IRadAn=         5 IDoV=-2 UseB2=F ITyADJ=14
 ICtDFT= 12500011 ScaDFX=  1.000000  1.000000  1.000000  1.000000
 Largest valence mixing into a core orbital is  3.00D-04
 Largest core mixing into a valence orbital is  4.39D-05
 Largest valence mixing into a core orbital is  3.00D-04
 Largest core mixing into a valence orbital is  4.39D-05
 Range of M.O.s used for correlation:     2   126
 NBasis=   126 NAE=     3 NBE=     3 NFC=     1 NFV=     0
 NROrb=    125 NOA=     2 NOB=     2 NVA=   123 NVB=   123

 **** Warning!!: The largest alpha MO coefficient is  0.31100747D+02


 **** Warning!!: The largest beta MO coefficient is  0.31100747D+02

 Leave Link  801 at Sun May 22 10:57:01 2022, MaxMem=   104857600 cpu:               0.1 elap:               0.1
 (Enter /apps/software/g16/l906.exe)
 FulOut=F Deriv=F AODrv=F NAtomX=     2
   MMem=         694  MDisk=           2 MDiskD=           2
  W3Min=       78720 MinDsk=      297938 NBas6D=         160
 NBas2D=       13447    NTT=       12880    LW2=     4508827
    MDV=   104734842 MDiskM=        1426 NBas2p=       13447
 Fully direct method using O(OVN) memory.
 IMap=   1   2
 JobTyp=2 Pass  1:  I=   1 to   2 NPSUse=  1 ParTrn=F ParDer=F DoDerP=F.
 IMap=   1   2
 JobTyp=3 Pass  1:  I=   1 to   2 NPSUse=  1 ParTrn=F ParDer=F DoDerP=F.
 Spin components of T(2) and E(2):
     alpha-alpha T2 =       0.1005160645D-02 E2=     -0.2514980188D-02
     alpha-beta  T2 =       0.2235846923D-01 E2=     -0.5916976849D-01
     beta-beta   T2 =       0.1005160645D-02 E2=     -0.2514980188D-02
 The integrals were generated   2 times.
 (S**2,0)=  0.52817D+00           (S**2,1)=  0.50979D+00
 E(PUHF)=      -0.25120596366D+02        E(PMP2)=      -0.25184646185D+02
 ANorm=    0.1012111056D+01
 E2 =    -0.6419972886D-01 EUMP2 =    -0.25176145172760D+02
 Leave Link  906 at Sun May 22 10:57:06 2022, MaxMem=   104857600 cpu:               5.5 elap:               5.5
 (Enter /apps/software/g16/l601.exe)
 Copying SCF densities to generalized density rwf, IOpCl= 1 IROHF=0.
 SCF density gives NOpUse=  1 NOpAll=  4.
 Marking SCF density as not fully symmetric.

 **********************************************************************

            Population analysis using the SCF density.

 **********************************************************************

 Orbital symmetries:
 Alpha Orbitals:
       Occupied  (SG) (SG) (?A)
       Virtual   (?A) (?A) (?A) (?A) (?A) (?A) (?A) (?A) (?A) (?A)
                 (?A) (?A) (?A) (?A) (?A) (?A) (?A) (?A) (?A) (?A)
                 (?A) (?A) (?A) (?A) (?A) (?A) (?A) (?A) (?A) (?A)
                 (?A) (?A) (?B) (?B) (?B) (?B) (?B) (SG) (?C) (?C)
                 (?C) (PI) (PI) (?D) (?E) (?E) (?E) (?E) (?D) (?D)
                 (?D) (?D) (?D) (?D) (?D) (?D) (?D) (?F) (?F) (?F)
                 (?F) (?F) (?G) (?G) (?G) (?G) (PHI) (PHI) (DLTA)
                 (DLTA) (SG) (PI) (PI) (SG) (PI) (PI) (?H) (?H)
                 (?H) (DLTA) (DLTA) (SG) (?E) (?E) (?E) (?E) (?I)
                 (?I) (?I) (?I) (?I) (?I) (?I) (?I) (?I) (PI) (PI)
                 (?J) (?J) (?J) (?J) (?J) (SG) (SG) (PI) (PI) (PHI)
                 (PHI) (DLTA) (DLTA) (SG) (PI) (PI) (SG) (DLTA)
                 (DLTA) (PI) (PI) (PI) (PI) (SG) (SG) (SG)
 Beta  Orbitals:
       Occupied  (SG) (SG) (?A)
       Virtual   (?A) (?A) (?A) (?A) (?A) (?A) (?A) (?A) (?A) (?A)
                 (?A) (?A) (?A) (?A) (?A) (?A) (?A) (?A) (?A) (?A)
                 (?A) (?A) (?A) (?A) (?A) (?A) (?A) (?A) (?A) (?A)
                 (?A) (?A) (?B) (?B) (?B) (?B) (?B) (SG) (?C) (?C)
                 (?C) (PI) (PI) (?D) (?E) (?E) (?E) (?E) (?D) (?D)
                 (?D) (?D) (?D) (?D) (?D) (?D) (?D) (?F) (?F) (?F)
                 (?F) (?F) (?G) (?G) (?G) (?G) (PHI) (PHI) (DLTA)
                 (DLTA) (SG) (PI) (PI) (SG) (PI) (PI) (?H) (?H)
                 (?H) (DLTA) (DLTA) (SG) (?E) (?E) (?E) (?E) (?I)
                 (?I) (?I) (?I) (?I) (?I) (?I) (?I) (?I) (PI) (PI)
                 (?J) (?J) (?J) (?J) (?J) (SG) (SG) (PI) (PI) (PHI)
                 (PHI) (DLTA) (DLTA) (SG) (PI) (PI) (SG) (DLTA)
                 (DLTA) (PI) (PI) (PI) (PI) (SG) (SG) (SG)
 Unable to determine electronic state:  an orbital has unidentified symmetry.
 Alpha  occ. eigenvalues --   -7.64719  -0.70323  -0.36862
 Alpha virt. eigenvalues --    0.02662   0.02898   0.03400   0.04358   0.08227
 Alpha virt. eigenvalues --    0.08955   0.12028   0.13164   0.13439   0.14670
 Alpha virt. eigenvalues --    0.14675   0.14847   0.18005   0.27400   0.27427
 Alpha virt. eigenvalues --    0.28034   0.32676   0.32749   0.41503   0.44064
 Alpha virt. eigenvalues --    0.44170   0.44301   0.46369   0.46376   0.47241
 Alpha virt. eigenvalues --    0.47662   0.50510   0.50552   0.50926   0.56654
 Alpha virt. eigenvalues --    0.60541   0.60913   0.77317   0.77915   0.78153
 Alpha virt. eigenvalues --    0.81193   0.81203   0.97092   1.04828   1.05742
 Alpha virt. eigenvalues --    1.07196   1.18539   1.18967   1.37148   1.37553
 Alpha virt. eigenvalues --    1.37553   1.38144   1.38144   1.40097   1.40114
 Alpha virt. eigenvalues --    1.43818   1.43824   1.45048   1.45066   1.46346
 Alpha virt. eigenvalues --    1.46964   1.47776   1.60016   1.62169   1.62834
 Alpha virt. eigenvalues --    1.69907   1.69921   1.88377   1.88786   1.89251
 Alpha virt. eigenvalues --    1.92780   1.98253   1.98253   2.02790   2.02793
 Alpha virt. eigenvalues --    2.16544   2.25510   2.26119   2.89084   3.12317
 Alpha virt. eigenvalues --    3.12813   3.28082   3.28538   3.29110   3.34682
 Alpha virt. eigenvalues --    3.34686   3.91545   3.93368   3.93368   3.94561
 Alpha virt. eigenvalues --    3.94561   4.01888   4.01893   4.03485   4.04531
 Alpha virt. eigenvalues --    4.06345   4.06356   4.11143   4.11144   4.12878
 Alpha virt. eigenvalues --    4.33582   4.34505   4.50726   4.52244   4.53152
 Alpha virt. eigenvalues --    4.65144   4.65173   5.46535   5.67464   5.83701
 Alpha virt. eigenvalues --    5.84484   6.87651   6.87651   7.68178   7.68181
 Alpha virt. eigenvalues --    7.94105   7.96723   7.97056   8.65144   9.04532
 Alpha virt. eigenvalues --    9.04533   9.25411   9.25734   9.91161   9.91640
 Alpha virt. eigenvalues --   10.25437  11.32741  17.66480
  Beta  occ. eigenvalues --   -7.64719  -0.70323  -0.36862
  Beta virt. eigenvalues --    0.02662   0.02898   0.03400   0.04358   0.08227
  Beta virt. eigenvalues --    0.08955   0.12028   0.13164   0.13439   0.14670
  Beta virt. eigenvalues --    0.14675   0.14847   0.18005   0.27400   0.27427
  Beta virt. eigenvalues --    0.28034   0.32676   0.32749   0.41503   0.44064
  Beta virt. eigenvalues --    0.44170   0.44301   0.46369   0.46376   0.47241
  Beta virt. eigenvalues --    0.47662   0.50510   0.50552   0.50926   0.56654
  Beta virt. eigenvalues --    0.60541   0.60913   0.77317   0.77915   0.78153
  Beta virt. eigenvalues --    0.81193   0.81203   0.97092   1.04828   1.05742
  Beta virt. eigenvalues --    1.07196   1.18539   1.18967   1.37148   1.37553
  Beta virt. eigenvalues --    1.37553   1.38144   1.38144   1.40097   1.40114
  Beta virt. eigenvalues --    1.43818   1.43824   1.45048   1.45066   1.46346
  Beta virt. eigenvalues --    1.46964   1.47776   1.60016   1.62169   1.62834
  Beta virt. eigenvalues --    1.69907   1.69921   1.88377   1.88786   1.89251
  Beta virt. eigenvalues --    1.92780   1.98253   1.98253   2.02790   2.02793
  Beta virt. eigenvalues --    2.16544   2.25510   2.26119   2.89084   3.12317
  Beta virt. eigenvalues --    3.12813   3.28082   3.28538   3.29110   3.34682
  Beta virt. eigenvalues --    3.34686   3.91545   3.93368   3.93368   3.94561
  Beta virt. eigenvalues --    3.94561   4.01888   4.01893   4.03485   4.04531
  Beta virt. eigenvalues --    4.06345   4.06356   4.11143   4.11144   4.12878
  Beta virt. eigenvalues --    4.33582   4.34505   4.50726   4.52244   4.53152
  Beta virt. eigenvalues --    4.65144   4.65173   5.46535   5.67464   5.83701
  Beta virt. eigenvalues --    5.84484   6.87651   6.87651   7.68178   7.68181
  Beta virt. eigenvalues --    7.94105   7.96723   7.97056   8.65144   9.04532
  Beta virt. eigenvalues --    9.04533   9.25411   9.25734   9.91161   9.91640
  Beta virt. eigenvalues --   10.25437  11.32741  17.66480
          Condensed to atoms (all electrons):
               1          2
     1  B    4.753818   0.193824
     2  H    0.193824   0.858535
          Atomic-Atomic Spin Densities.
               1          2
     1  B    0.000000   0.000000
     2  H    0.000000   0.000000
 Mulliken charges and spin densities:
               1          2
     1  B    0.052359   0.000000
     2  H   -0.052359   0.000000
 Sum of Mulliken charges =  -0.00000   0.00000
 Mulliken charges and spin densities with hydrogens summed into heavy atoms:
               1          2
     1  B   -0.000000   0.000000
 Electronic spatial extent (au):  <R**2>=             19.9788
 Charge=             -0.0000 electrons
 Dipole moment (field-independent basis, Debye):
    X=              0.0000    Y=             -0.0000    Z=             -1.6620  Tot=              1.6620
 Quadrupole moment (field-independent basis, Debye-Ang):
   XX=             -7.3320   YY=             -6.1643   ZZ=             -9.3732
   XY=              0.0000   XZ=              0.0000   YZ=             -0.0000
 Traceless Quadrupole moment (field-independent basis, Debye-Ang):
   XX=              0.2912   YY=              1.4589   ZZ=             -1.7500
   XY=              0.0000   XZ=              0.0000   YZ=             -0.0000
 Octapole moment (field-independent basis, Debye-Ang**2):
  XXX=              0.0000  YYY=             -0.0000  ZZZ=             -5.3369  XYY=              0.0000
  XXY=             -0.0000  XXZ=             -1.9820  XZZ=              0.0000  YZZ=             -0.0000
  YYZ=             -1.5570  XYZ=              0.0000
 Hexadecapole moment (field-independent basis, Debye-Ang**3):
 XXXX=            -12.0321 YYYY=             -8.6070 ZZZZ=            -21.8844 XXXY=              0.0000
 XXXZ=              0.0000 YYYX=              0.0000 YYYZ=             -0.0000 ZZZX=              0.0000
 ZZZY=             -0.0000 XXYY=             -3.4397 XXZZ=             -5.8579 YYZZ=             -5.1537
 XXYZ=             -0.0000 YYXZ=              0.0000 ZZXY=              0.0000
 N-N= 2.645886054600D+00 E-N=-6.348616300434D+01  KE= 2.540859256966D+01
 Symmetry A1   KE= 2.516920120547D+01
 Symmetry A2   KE= 8.968833091674D-31
 Symmetry B1   KE= 2.393913641915D-01
 Symmetry B2   KE= 1.570265831988D-30
 Symmetry A1   SP= 0.000000000000D+00
 Symmetry A2   SP= 0.000000000000D+00
 Symmetry B1   SP= 0.000000000000D+00
 Symmetry B2   SP= 0.000000000000D+00
 Leave Link  601 at Sun May 22 10:57:06 2022, MaxMem=   104857600 cpu:               0.1 elap:               0.1
 (Enter /apps/software/g16/l9999.exe)
 1\1\GINC-CNODE16\SP\UMP2-FC\Aug-CC-pVQZ\B1H1\LCZ\22-May-2022\0\\#p UHF
 /aug-cc-pVQZ MP2=FC guess=read\\BH UHF at 1.0 Angstrom\\0,1\B,0,0.,0.,
 0.\H,0,1.,0.,0.\\Version=ES64L-G16RevA.03\HF=-25.1119454\MP2=-25.17614
 52\PUHF=-25.1205964\PMP2-0=-25.1846462\S2=0.528174\S2-1=0.509793\S2A=0
 .004397\RMSD=2.236e-10\PG=C*V [C*(H1B1)]\\@


 O WAD SOME POWER THE GIFTIE GIE US       
 TO SEE OURSELS AS OTHERS SEE US.....     
 IT WOULD FRAE MONIE A BLUNDER FREE US,   
                     AND FOOLISH NOTION...
 WHAT AIRS IN DRESS AND GAIT WAD LEA'E US,
                     AND EV'N DEVOTION....
                                          
              (ROBERT BURNS 'TO A LOUSE') 
 Job cpu time:       0 days  0 hours  0 minutes  9.9 seconds.
 Elapsed time:       0 days  0 hours  0 minutes  9.9 seconds.
 File lengths (MBytes):  RWF=     16 Int=      0 D2E=      0 Chk=     67 Scr=      1
 Normal termination of Gaussian 16 at Sun May 22 10:57:06 2022.

Sender: Unischeduler System <lcz@mgt01>
Subject: Job 133858: <#!/bin/bash
#BSUB -J intel
#BSUB -o BH-1.0-UMP2-G.out
#BSUB -n 8
#BSUB -q cqueue
#BSUB -R span[hosts=1]
export g16root=/apps/software
source /apps/software/g16/bsd/g16.profile
export GAUSS_SCRDIR=/scratch
/apps/software/g16/g16 < BH-1.0-UMP2-G.inp > BH-1.0-UMP2-G.out> Done

Job <#!/bin/bash
#BSUB -J intel
#BSUB -o BH-1.0-UMP2-G.out
#BSUB -n 8
#BSUB -q cqueue
#BSUB -R span[hosts=1]
export g16root=/apps/software
source /apps/software/g16/bsd/g16.profile
export GAUSS_SCRDIR=/scratch
/apps/software/g16/g16 < BH-1.0-UMP2-G.inp > BH-1.0-UMP2-G.out> was submitted from host <mgt01> by user <lcz>.
Job was executed on host(s) <8*cnode16>, in queue <cqueue>, as user <lcz>.
</apps/users/lcz> was used as the home directory.
</apps/users/lcz/exe13/UMP2> was used as the working directory.
Started at 2022-05-22 10:56:56
Results reported at 2022-05-22 10:57:06

Your job looked like:

------------------------------------------------------------
# User input
#!/bin/bash
#BSUB -J intel
#BSUB -o BH-1.0-UMP2-G.out
#BSUB -n 8
#BSUB -q cqueue
#BSUB -R span[hosts=1]
export g16root=/apps/software
source /apps/software/g16/bsd/g16.profile
export GAUSS_SCRDIR=/scratch
/apps/software/g16/g16 < BH-1.0-UMP2-G.inp > BH-1.0-UMP2-G.out
------------------------------------------------------------

Successfully completed.

Resource usage summary:

    CPU time   :            2.38 sec.
    Max Memory :               478 MB
    Max Processes  :               5


The output (if any) follows:

