 Entering Gaussian System, Link 0=/apps/software/g16/g16
 Initial command:
 /apps/software/g16/l1.exe "/scratch/Gau-200767.inp" -scrdir="/scratch/"
 Entering Link 1 = /apps/software/g16/l1.exe PID=    200768.
  
 Copyright (c) 1988,1990,1992,1993,1995,1998,2003,2009,2016,
            Gaussian, Inc.  All Rights Reserved.
  
 This is part of the Gaussian(R) 16 program.  It is based on
 the Gaussian(R) 09 system (copyright 2009, Gaussian, Inc.),
 the Gaussian(R) 03 system (copyright 2003, Gaussian, Inc.),
 the Gaussian(R) 98 system (copyright 1998, Gaussian, Inc.),
 the Gaussian(R) 94 system (copyright 1995, Gaussian, Inc.),
 the Gaussian 92(TM) system (copyright 1992, Gaussian, Inc.),
 the Gaussian 90(TM) system (copyright 1990, Gaussian, Inc.),
 the Gaussian 88(TM) system (copyright 1988, Gaussian, Inc.),
 the Gaussian 86(TM) system (copyright 1986, Carnegie Mellon
 University), and the Gaussian 82(TM) system (copyright 1983,
 Carnegie Mellon University). Gaussian is a federally registered
 trademark of Gaussian, Inc.
  
 This software contains proprietary and confidential information,
 including trade secrets, belonging to Gaussian, Inc.
  
 This software is provided under written license and may be
 used, copied, transmitted, or stored only in accord with that
 written license.
  
 The following legend is applicable only to US Government
 contracts under FAR:
  
                    RESTRICTED RIGHTS LEGEND
  
 Use, reproduction and disclosure by the US Government is
 subject to restrictions as set forth in subparagraphs (a)
 and (c) of the Commercial Computer Software - Restricted
 Rights clause in FAR 52.227-19.
  
 Gaussian, Inc.
 340 Quinnipiac St., Bldg. 40, Wallingford CT 06492
  
  
 ---------------------------------------------------------------
 Warning -- This program may not be used in any manner that
 competes with the business of Gaussian, Inc. or will provide
 assistance to any competitor of Gaussian, Inc.  The licensee
 of this program is prohibited from giving any competitor of
 Gaussian, Inc. access to this program.  By using this program,
 the user acknowledges that Gaussian, Inc. is engaged in the
 business of creating and licensing software in the field of
 computational chemistry and represents and warrants to the
 licensee that it is not a competitor of Gaussian, Inc. and that
 it will not use this program in any manner prohibited above.
 ---------------------------------------------------------------
  

 Cite this work as:
 Gaussian 16, Revision A.03,
 M. J. Frisch, G. W. Trucks, H. B. Schlegel, G. E. Scuseria, 
 M. A. Robb, J. R. Cheeseman, G. Scalmani, V. Barone, 
 G. A. Petersson, H. Nakatsuji, X. Li, M. Caricato, A. V. Marenich, 
 J. Bloino, B. G. Janesko, R. Gomperts, B. Mennucci, H. P. Hratchian, 
 J. V. Ortiz, A. F. Izmaylov, J. L. Sonnenberg, D. Williams-Young, 
 F. Ding, F. Lipparini, F. Egidi, J. Goings, B. Peng, A. Petrone, 
 T. Henderson, D. Ranasinghe, V. G. Zakrzewski, J. Gao, N. Rega, 
 G. Zheng, W. Liang, M. Hada, M. Ehara, K. Toyota, R. Fukuda, 
 J. Hasegawa, M. Ishida, T. Nakajima, Y. Honda, O. Kitao, H. Nakai, 
 T. Vreven, K. Throssell, J. A. Montgomery, Jr., J. E. Peralta, 
 F. Ogliaro, M. J. Bearpark, J. J. Heyd, E. N. Brothers, K. N. Kudin, 
 V. N. Staroverov, T. A. Keith, R. Kobayashi, J. Normand, 
 K. Raghavachari, A. P. Rendell, J. C. Burant, S. S. Iyengar, 
 J. Tomasi, M. Cossi, J. M. Millam, M. Klene, C. Adamo, R. Cammi, 
 J. W. Ochterski, R. L. Martin, K. Morokuma, O. Farkas, 
 J. B. Foresman, and D. J. Fox, Gaussian, Inc., Wallingford CT, 2016.
 
 ******************************************
 Gaussian 16:  ES64L-G16RevA.03 25-Dec-2016
                22-May-2022 
 ******************************************
 %oldchk=BH-1.3-UHF-G.chk
 %chk=BH-1.3-UMP2-G.chk
 Copying data from "BH-1.3-UHF-G.chk" to current chk file "BH-1.3-UMP2-G.chk"
 IOpt=  2 FromEx=T IUOpen= 4 IOptOp= 5 NList=   0 IFRang= 0 IUIn= 4 IUOut= 2.
 ------------------------------------
 #p UHF/aug-cc-pVQZ MP2=FC guess=read
 ------------------------------------
 1/38=1,172=1/1;
 2/12=2,17=6,18=5,40=1/2;
 3/5=16,6=2,7=10,11=2,25=1,30=1,116=2/1,2,3;
 4/5=1/1;
 5/5=2,38=6/2;
 8/10=1/1;
 9/16=-3/6;
 6/7=2,8=2,9=2,10=2/1;
 99/5=1,9=1/99;
 Leave Link    1 at Sun May 22 10:56:41 2022, MaxMem=   104857600 cpu:               0.0 elap:               0.0
 (Enter /apps/software/g16/l101.exe)
 ----------------------
 BH UHF at 1.3 Angstrom
 ----------------------
 Symbolic Z-matrix:
 Charge =  0 Multiplicity = 1
 B                     0.        0.        0. 
 H                     1.3       0.        0. 
 
 ITRead=  0  0
 MicOpt= -1 -1
 NAtoms=      2 NQM=        2 NQMF=       0 NMMI=      0 NMMIF=      0
                NMic=       0 NMicF=      0.
                    Isotopes and Nuclear Properties:
 (Nuclear quadrupole moments (NQMom) in fm**2, nuclear magnetic moments (NMagM)
  in nuclear magnetons)

  Atom         1           2
 IAtWgt=          11           1
 AtmWgt=  11.0093053   1.0078250
 NucSpn=           3           1
 AtZEff=  -0.0000000  -0.0000000
 NQMom=    4.0590000   0.0000000
 NMagM=    2.6886370   2.7928460
 AtZNuc=   5.0000000   1.0000000
 Leave Link  101 at Sun May 22 10:56:41 2022, MaxMem=   104857600 cpu:               0.1 elap:               0.1
 (Enter /apps/software/g16/l202.exe)
                          Input orientation:                          
 ---------------------------------------------------------------------
 Center     Atomic      Atomic             Coordinates (Angstroms)
 Number     Number       Type             X           Y           Z
 ---------------------------------------------------------------------
      1          5           0        0.000000    0.000000    0.000000
      2          1           0        1.300000    0.000000    0.000000
 ---------------------------------------------------------------------
 Stoichiometry    BH
 Framework group  C*V[C*(HB)]
 Deg. of freedom     1
 Full point group                 C*V     NOp   4
 Largest Abelian subgroup         C2V     NOp   4
 Largest concise Abelian subgroup C1      NOp   1
                         Standard orientation:                         
 ---------------------------------------------------------------------
 Center     Atomic      Atomic             Coordinates (Angstroms)
 Number     Number       Type             X           Y           Z
 ---------------------------------------------------------------------
      1          5           0        0.000000    0.000000    0.216667
      2          1           0        0.000000    0.000000   -1.083333
 ---------------------------------------------------------------------
 Rotational constants (GHZ):           0.0000000         323.8815493         323.8815493
 Leave Link  202 at Sun May 22 10:56:41 2022, MaxMem=   104857600 cpu:               0.0 elap:               0.0
 (Enter /apps/software/g16/l301.exe)
 Standard basis: Aug-CC-pVQZ (5D, 7F)
 Ernie: Thresh=  0.10000D-02 Tol=  0.10000D-05 Strict=F.
 Ernie:  4 primitive shells out of 54 were deleted.
 There are    68 symmetry adapted cartesian basis functions of A1  symmetry.
 There are    18 symmetry adapted cartesian basis functions of A2  symmetry.
 There are    37 symmetry adapted cartesian basis functions of B1  symmetry.
 There are    37 symmetry adapted cartesian basis functions of B2  symmetry.
 There are    50 symmetry adapted basis functions of A1  symmetry.
 There are    16 symmetry adapted basis functions of A2  symmetry.
 There are    30 symmetry adapted basis functions of B1  symmetry.
 There are    30 symmetry adapted basis functions of B2  symmetry.
   126 basis functions,   180 primitive gaussians,   160 cartesian basis functions
     3 alpha electrons        3 beta electrons
       nuclear repulsion energy         2.0352969651 Hartrees.
 IExCor=    0 DFT=F Ex=HF Corr=None ExCW=0 ScaHFX=  1.000000
 ScaDFX=  1.000000  1.000000  1.000000  1.000000 ScalE2=  1.000000  1.000000
 IRadAn=      5 IRanWt=     -1 IRanGd=            0 ICorTp=0 IEmpDi=  4
 NAtoms=    2 NActive=    2 NUniq=    2 SFac= 1.00D+00 NAtFMM=   60 NAOKFM=F Big=F
 Integral buffers will be    131072 words long.
 Raffenetti 2 integral format.
 Two-electron integral symmetry is turned on.
 Leave Link  301 at Sun May 22 10:56:41 2022, MaxMem=   104857600 cpu:               0.1 elap:               0.1
 (Enter /apps/software/g16/l302.exe)
 NPDir=0 NMtPBC=     1 NCelOv=     1 NCel=       1 NClECP=     1 NCelD=      1
         NCelK=      1 NCelE2=     1 NClLst=     1 CellRange=     0.0.
 One-electron integrals computed using PRISM.
 One-electron integral symmetry used in STVInt
 NBasis=   126 RedAO= T EigKep=  1.36D-04  NBF=    50    16    30    30
 NBsUse=   126 1.00D-06 EigRej= -1.00D+00 NBFU=    50    16    30    30
 Leave Link  302 at Sun May 22 10:56:41 2022, MaxMem=   104857600 cpu:               0.1 elap:               0.1
 (Enter /apps/software/g16/l303.exe)
 DipDrv:  MaxL=1.
 Leave Link  303 at Sun May 22 10:56:41 2022, MaxMem=   104857600 cpu:               0.0 elap:               0.0
 (Enter /apps/software/g16/l401.exe)
 Initial guess from the checkpoint file:  "BH-1.3-UMP2-G.chk"
 B after Tr=     0.000000    0.000000    0.000000
         Rot=    1.000000    0.000000    0.000000    0.000000 Ang=   0.00 deg.
 Guess basis will be translated and rotated to current coordinates.
 JPrj=2 DoOrth=T DoCkMO=T.
 Initial guess orbital symmetries:
 Alpha Orbitals:
       Occupied  (SG) (SG) (?A)
       Virtual   (?A) (?A) (?A) (?A) (?A) (?A) (?A) (?A) (?A) (?A)
                 (?A) (SG) (?A) (?B) (?B) (?B) (?A) (?A) (?A) (?A)
                 (?A) (?A) (?A) (?A) (?A) (?A) (?A) (?A) (?A) (?A)
                 (PI) (PI) (SG) (PI) (PI) (DLTA) (DLTA) (SG) (?C)
                 (?C) (?C) (PI) (PI) (?D) (?E) (?E) (?E) (?E) (?D)
                 (?D) (?D) (?D) (?D) (?D) (?D) (?D) (?D) (?F) (?F)
                 (?F) (?F) (?F) (SG) (?G) (?G) (?G) (?G) (SG) (DLTA)
                 (DLTA) (PI) (PI) (SG) (SG) (DLTA) (DLTA) (PI)
                 (PI) (?H) (?H) (?H) (SG) (?I) (?I) (?I) (?I) (?I)
                 (?I) (DLTA) (DLTA) (?J) (?J) (?J) (?J) (?J) (?J)
                 (?J) (?J) (?J) (?J) (?J) (SG) (SG) (PI) (PI) (SG)
                 (PHI) (PHI) (DLTA) (DLTA) (SG) (PI) (PI) (SG)
                 (?K) (?K) (?K) (?K) (PI) (PI) (SG) (SG) (SG)
 Beta  Orbitals:
       Occupied  (SG) (SG) (?A)
       Virtual   (?A) (?A) (?A) (?A) (?A) (?A) (?A) (?A) (?A) (?A)
                 (?A) (SG) (?A) (?B) (?B) (?B) (?A) (?A) (?A) (?A)
                 (?A) (?A) (?A) (?A) (?A) (?A) (?A) (?A) (?A) (?A)
                 (PI) (PI) (SG) (PI) (PI) (DLTA) (DLTA) (SG) (?C)
                 (?C) (?C) (PI) (PI) (?D) (?E) (?E) (?E) (?E) (?D)
                 (?D) (?D) (?D) (?D) (?D) (?D) (?D) (?D) (?F) (?F)
                 (?F) (?F) (?F) (SG) (?G) (?G) (?G) (?G) (SG) (DLTA)
                 (DLTA) (PI) (PI) (SG) (SG) (DLTA) (DLTA) (PI)
                 (PI) (?H) (?H) (?H) (SG) (?I) (?I) (?I) (?I) (?I)
                 (?I) (DLTA) (DLTA) (?J) (?J) (?J) (?J) (?J) (?J)
                 (?J) (?J) (?J) (?J) (?J) (SG) (SG) (PI) (PI) (SG)
                 (PHI) (PHI) (DLTA) (DLTA) (SG) (PI) (PI) (SG)
                 (?K) (?K) (?K) (?K) (PI) (PI) (SG) (SG) (SG)
 Initial guess <Sx>= 0.0000 <Sy>= 0.0000 <Sz>= 0.0000 <S**2>= 0.4615 S= 0.3435
 Leave Link  401 at Sun May 22 10:56:41 2022, MaxMem=   104857600 cpu:               0.1 elap:               0.1
 (Enter /apps/software/g16/l502.exe)
 Keep R1 and R2 ints in memory in symmetry-blocked form, NReq=40143665.
 FoFCou: FMM=F IPFlag=           0 FMFlag=           0 FMFlg1=           0
         NFxFlg=           0 DoJE=F BraDBF=F KetDBF=F FulRan=T
         wScrn=  0.000000 ICntrl=       600 IOpCl=  0 I1Cent=           0 NGrid=           0
         NMat0=    1 NMatS0=   8001 NMatT0=    0 NMatD0=    1 NMtDS0=    0 NMtDT0=    0
 Petite list used in FoFCou.
 UHF open shell SCF:
 Using DIIS extrapolation, IDIIS=  1040.
 NGot=   104857600 LenX=    88563632 LenY=    88537591
 Requested convergence on RMS density matrix=1.00D-08 within 128 cycles.
 Requested convergence on MAX density matrix=1.00D-06.
 Requested convergence on             energy=1.00D-06.
 No special actions if energy rises.
 An orbital has undefined symmetry, so N**3 symmetry is turned off.

 Cycle   1  Pass 1  IDiag  1:
 Density matrix breaks symmetry, PCut= 1.00D-07
 Density matrix has no symmetry -- integrals replicated.
 E= -25.1352449579057    
 DIIS: error= 6.31D-09 at cycle   1 NSaved=   1.
 NSaved= 1 IEnMin= 1 EnMin= -25.1352449579057     IErMin= 1 ErrMin= 6.31D-09
 ErrMax= 6.31D-09  0.00D+00 EMaxC= 1.00D-01 BMatC= 4.73D-15 BMatP= 4.73D-15
 IDIUse=1 WtCom= 1.00D+00 WtEn= 0.00D+00
 Coeff-Com:  0.100D+01
 Coeff:      0.100D+01
 Gap=     0.396 Goal=   None    Shift=    0.000
 Gap=     0.396 Goal=   None    Shift=    0.000
 RMSDP=3.84D-10 MaxDP=6.79D-09              OVMax= 3.44D-08

 Density matrix breaks symmetry, PCut= 1.00D-07
 Density matrix has no symmetry -- integrals replicated.
 SCF Done:  E(UHF) =  -25.1352449579     A.U. after    1 cycles
            NFock=  1  Conv=0.38D-09     -V/T= 2.0031
 <Sx>= 0.0000 <Sy>= 0.0000 <Sz>= 0.0000 <S**2>= 0.4615 S= 0.3435
 <L.S>=  0.00000000000    
 KE= 2.505851712857D+01 PE=-6.203849742596D+01 EE= 9.809438374403D+00
 Annihilation of the first spin contaminant:
 S**2 before annihilation     0.4615,   after     0.0051
 Leave Link  502 at Sun May 22 10:56:45 2022, MaxMem=   104857600 cpu:               3.6 elap:               3.6
 (Enter /apps/software/g16/l801.exe)
 ExpMin= 1.88D-02 ExpMax= 2.39D+04 ExpMxC= 2.30D+02 IAcc=3 IRadAn=         5 AccDes= 0.00D+00
 HarFok:  IExCor=  205 AccDes= 0.00D+00 IRadAn=         5 IDoV=-2 UseB2=F ITyADJ=14
 ICtDFT= 12500011 ScaDFX=  1.000000  1.000000  1.000000  1.000000
 DSYEVD-2 returned Info=        3401 IAlg= 4 N=    80 NDim=    80 NE2=     1309686 trying  DSYEV.
 Largest valence mixing into a core orbital is  3.38D-04
 Largest core mixing into a valence orbital is  6.22D-05
 Largest valence mixing into a core orbital is  3.38D-04
 Largest core mixing into a valence orbital is  6.22D-05
 Range of M.O.s used for correlation:     2   126
 NBasis=   126 NAE=     3 NBE=     3 NFC=     1 NFV=     0
 NROrb=    125 NOA=     2 NOB=     2 NVA=   123 NVB=   123

 **** Warning!!: The largest alpha MO coefficient is  0.22511169D+02


 **** Warning!!: The largest beta MO coefficient is  0.22511169D+02

 Leave Link  801 at Sun May 22 10:56:45 2022, MaxMem=   104857600 cpu:               0.1 elap:               0.1
 (Enter /apps/software/g16/l906.exe)
 FulOut=F Deriv=F AODrv=F NAtomX=     2
   MMem=         694  MDisk=           2 MDiskD=           2
  W3Min=       78720 MinDsk=      297938 NBas6D=         160
 NBas2D=       13447    NTT=       12880    LW2=     4508827
    MDV=   104734898 MDiskM=        1426 NBas2p=       13447
 Fully direct method using O(OVN) memory.
 IMap=   1   2
 JobTyp=2 Pass  1:  I=   1 to   2 NPSUse=  1 ParTrn=F ParDer=F DoDerP=F.
 IMap=   1   2
 JobTyp=3 Pass  1:  I=   1 to   2 NPSUse=  1 ParTrn=F ParDer=F DoDerP=F.
 Spin components of T(2) and E(2):
     alpha-alpha T2 =       0.1140669563D-02 E2=     -0.2521029567D-02
     alpha-beta  T2 =       0.2623188794D-01 E2=     -0.6086986375D-01
     beta-beta   T2 =       0.1140669563D-02 E2=     -0.2521029567D-02
 The integrals were generated   2 times.
 (S**2,0)=  0.46149D+00           (S**2,1)=  0.43884D+00
 E(PUHF)=      -0.25144909273D+02        E(PMP2)=      -0.25210585320D+02
 ANorm=    0.1014156412D+01
 E2 =    -0.6591192288D-01 EUMP2 =    -0.25201156880789D+02
 Leave Link  906 at Sun May 22 10:56:51 2022, MaxMem=   104857600 cpu:               5.5 elap:               5.5
 (Enter /apps/software/g16/l601.exe)
 Copying SCF densities to generalized density rwf, IOpCl= 1 IROHF=0.
 SCF density gives NOpUse=  1 NOpAll=  4.
 Marking SCF density as not fully symmetric.

 **********************************************************************

            Population analysis using the SCF density.

 **********************************************************************

 Orbital symmetries:
 Alpha Orbitals:
       Occupied  (SG) (SG) (?A)
       Virtual   (?A) (?A) (?A) (?A) (?A) (?A) (?A) (?A) (?A) (?A)
                 (?A) (SG) (?A) (?B) (?B) (?B) (?A) (?A) (?A) (?A)
                 (?A) (?A) (?A) (?A) (?A) (?A) (?A) (?A) (?A) (?A)
                 (PI) (PI) (SG) (PI) (PI) (DLTA) (DLTA) (SG) (?C)
                 (?C) (?C) (PI) (PI) (?D) (?E) (?E) (?E) (?E) (?D)
                 (?D) (?D) (?D) (?D) (?D) (?D) (?D) (?D) (?F) (?F)
                 (?F) (?F) (?F) (SG) (?G) (?G) (?G) (?G) (SG) (DLTA)
                 (DLTA) (PI) (PI) (SG) (SG) (DLTA) (DLTA) (PI)
                 (PI) (?H) (?H) (?H) (SG) (?I) (?I) (?I) (?I) (?I)
                 (?I) (DLTA) (DLTA) (?J) (?J) (?J) (?J) (?J) (?J)
                 (?J) (?J) (?J) (?J) (?J) (SG) (SG) (PI) (PI) (SG)
                 (PHI) (PHI) (DLTA) (DLTA) (SG) (PI) (PI) (SG)
                 (?K) (?K) (?K) (?K) (PI) (PI) (SG) (SG) (SG)
 Beta  Orbitals:
       Occupied  (SG) (SG) (?A)
       Virtual   (?A) (?A) (?A) (?A) (?A) (?A) (?A) (?A) (?A) (?A)
                 (?A) (SG) (?A) (?B) (?B) (?B) (?A) (?A) (?A) (?A)
                 (?A) (?A) (?A) (?A) (?A) (?A) (?A) (?A) (?A) (?A)
                 (PI) (PI) (SG) (PI) (PI) (DLTA) (DLTA) (SG) (?C)
                 (?C) (?C) (PI) (PI) (?D) (?E) (?E) (?E) (?E) (?D)
                 (?D) (?D) (?D) (?D) (?D) (?D) (?D) (?D) (?F) (?F)
                 (?F) (?F) (?F) (SG) (?G) (?G) (?G) (?G) (SG) (DLTA)
                 (DLTA) (PI) (PI) (SG) (SG) (DLTA) (DLTA) (PI)
                 (PI) (?H) (?H) (?H) (SG) (?I) (?I) (?I) (?I) (?I)
                 (?I) (DLTA) (DLTA) (?J) (?J) (?J) (?J) (?J) (?J)
                 (?J) (?J) (?J) (?J) (?J) (SG) (SG) (PI) (PI) (SG)
                 (PHI) (PHI) (DLTA) (DLTA) (SG) (PI) (PI) (SG)
                 (?K) (?K) (?K) (?K) (PI) (PI) (SG) (SG) (SG)
 Unable to determine electronic state:  an orbital has unidentified symmetry.
 Alpha  occ. eigenvalues --   -7.68468  -0.62539  -0.37048
 Alpha virt. eigenvalues --    0.02528   0.02943   0.03360   0.04514   0.08040
 Alpha virt. eigenvalues --    0.08605   0.11304   0.13504   0.13667   0.14635
 Alpha virt. eigenvalues --    0.14640   0.15025   0.19200   0.25987   0.27348
 Alpha virt. eigenvalues --    0.27481   0.31408   0.31567   0.39211   0.40839
 Alpha virt. eigenvalues --    0.45712   0.45712   0.46285   0.46286   0.47755
 Alpha virt. eigenvalues --    0.48098   0.50287   0.50309   0.53635   0.53838
 Alpha virt. eigenvalues --    0.58587   0.58874   0.74924   0.78322   0.78517
 Alpha virt. eigenvalues --    0.80665   0.80669   0.83706   1.02745   1.02790
 Alpha virt. eigenvalues --    1.14124   1.19808   1.20162   1.35297   1.37108
 Alpha virt. eigenvalues --    1.37108   1.37338   1.37338   1.38912   1.38926
 Alpha virt. eigenvalues --    1.43502   1.43699   1.44091   1.44311   1.44670
 Alpha virt. eigenvalues --    1.45955   1.46066   1.54307   1.57238   1.57840
 Alpha virt. eigenvalues --    1.62119   1.62131   1.70786   1.85449   1.85780
 Alpha virt. eigenvalues --    1.87459   1.87460   1.92987   2.07952   2.07953
 Alpha virt. eigenvalues --    2.20694   2.21146   2.30633   2.49269   2.99156
 Alpha virt. eigenvalues --    2.99157   3.06469   3.06795   3.26921   3.27286
 Alpha virt. eigenvalues --    3.30208   3.44473   3.92146   3.92546   3.92546
 Alpha virt. eigenvalues --    3.92952   3.94001   3.94002   3.99971   3.99975
 Alpha virt. eigenvalues --    4.09834   4.09839   4.11249   4.11368   4.13098
 Alpha virt. eigenvalues --    4.13794   4.14682   4.24346   4.24359   4.29331
 Alpha virt. eigenvalues --    4.30076   4.47292   4.92567   5.17893   5.18529
 Alpha virt. eigenvalues --    5.54667   6.69748   6.69748   7.10245   7.10245
 Alpha virt. eigenvalues --    7.61887   7.64804   7.65069   8.21857   8.72794
 Alpha virt. eigenvalues --    8.72994   8.73892   8.73893   9.25760   9.25916
 Alpha virt. eigenvalues --    9.48303  10.28024  15.60545
  Beta  occ. eigenvalues --   -7.68468  -0.62539  -0.37048
  Beta virt. eigenvalues --    0.02528   0.02943   0.03360   0.04514   0.08040
  Beta virt. eigenvalues --    0.08605   0.11304   0.13504   0.13667   0.14635
  Beta virt. eigenvalues --    0.14640   0.15025   0.19200   0.25987   0.27348
  Beta virt. eigenvalues --    0.27481   0.31408   0.31567   0.39211   0.40839
  Beta virt. eigenvalues --    0.45712   0.45712   0.46285   0.46286   0.47755
  Beta virt. eigenvalues --    0.48098   0.50287   0.50309   0.53635   0.53838
  Beta virt. eigenvalues --    0.58587   0.58874   0.74924   0.78322   0.78517
  Beta virt. eigenvalues --    0.80665   0.80669   0.83706   1.02745   1.02790
  Beta virt. eigenvalues --    1.14124   1.19808   1.20162   1.35297   1.37108
  Beta virt. eigenvalues --    1.37108   1.37338   1.37338   1.38912   1.38926
  Beta virt. eigenvalues --    1.43502   1.43699   1.44091   1.44311   1.44670
  Beta virt. eigenvalues --    1.45955   1.46066   1.54307   1.57238   1.57840
  Beta virt. eigenvalues --    1.62119   1.62131   1.70786   1.85449   1.85780
  Beta virt. eigenvalues --    1.87459   1.87460   1.92987   2.07952   2.07953
  Beta virt. eigenvalues --    2.20694   2.21146   2.30633   2.49269   2.99156
  Beta virt. eigenvalues --    2.99157   3.06469   3.06795   3.26921   3.27286
  Beta virt. eigenvalues --    3.30208   3.44473   3.92146   3.92546   3.92546
  Beta virt. eigenvalues --    3.92952   3.94001   3.94002   3.99971   3.99975
  Beta virt. eigenvalues --    4.09834   4.09839   4.11249   4.11368   4.13098
  Beta virt. eigenvalues --    4.13794   4.14682   4.24346   4.24359   4.29331
  Beta virt. eigenvalues --    4.30076   4.47292   4.92567   5.17893   5.18529
  Beta virt. eigenvalues --    5.54667   6.69748   6.69748   7.10245   7.10245
  Beta virt. eigenvalues --    7.61887   7.64804   7.65069   8.21857   8.72794
  Beta virt. eigenvalues --    8.72994   8.73892   8.73893   9.25760   9.25916
  Beta virt. eigenvalues --    9.48303  10.28024  15.60545
          Condensed to atoms (all electrons):
               1          2
     1  B    4.644543   0.219252
     2  H    0.219252   0.916952
          Atomic-Atomic Spin Densities.
               1          2
     1  B    0.000000   0.000000
     2  H    0.000000  -0.000000
 Mulliken charges and spin densities:
               1          2
     1  B    0.136204   0.000000
     2  H   -0.136204  -0.000000
 Sum of Mulliken charges =   0.00000  -0.00000
 Mulliken charges and spin densities with hydrogens summed into heavy atoms:
               1          2
     1  B    0.000000  -0.000000
 Electronic spatial extent (au):  <R**2>=             22.7810
 Charge=              0.0000 electrons
 Dipole moment (field-independent basis, Debye):
    X=             -0.0000    Y=             -0.0000    Z=             -1.0694  Tot=              1.0694
 Quadrupole moment (field-independent basis, Debye-Ang):
   XX=             -6.4872   YY=             -7.4486   ZZ=             -9.9409
   XY=             -0.0000   XZ=             -0.0000   YZ=             -0.0000
 Traceless Quadrupole moment (field-independent basis, Debye-Ang):
   XX=              1.4717   YY=              0.5103   ZZ=             -1.9820
   XY=             -0.0000   XZ=             -0.0000   YZ=             -0.0000
 Octapole moment (field-independent basis, Debye-Ang**2):
  XXX=             -0.0000  YYY=             -0.0000  ZZZ=             -4.1202  XYY=             -0.0000
  XXY=             -0.0000  XXZ=             -0.9576  XZZ=             -0.0000  YZZ=             -0.0000
  YYZ=             -1.3598  XYZ=              0.0000
 Hexadecapole moment (field-independent basis, Debye-Ang**3):
 XXXX=             -8.8512 YYYY=            -11.5775 ZZZZ=            -27.8834 XXXY=             -0.0000
 XXXZ=             -0.0000 YYYX=             -0.0000 YYYZ=             -0.0000 ZZZX=             -0.0000
 ZZZY=             -0.0000 XXYY=             -3.4047 XXZZ=             -6.2916 YYZZ=             -6.8923
 XXYZ=             -0.0000 YYXZ=             -0.0000 ZZXY=              0.0000
 N-N= 2.035296965077D+00 E-N=-6.203849738975D+01  KE= 2.505851712857D+01
 Symmetry A1   KE= 2.485072845032D+01
 Symmetry A2   KE= 8.834052805192D-31
 Symmetry B1   KE= 2.727722280254D-30
 Symmetry B2   KE= 2.077886782590D-01
 Symmetry A1   SP=-2.201469253304D-15
 Symmetry A2   SP= 1.244780148889D-32
 Symmetry B1   SP=-5.214112882658D-32
 Symmetry B2   SP=-1.695420180722D-16
 Leave Link  601 at Sun May 22 10:56:51 2022, MaxMem=   104857600 cpu:               0.0 elap:               0.1
 (Enter /apps/software/g16/l9999.exe)
 1\1\GINC-CNODE08\SP\UMP2-FC\Aug-CC-pVQZ\B1H1\LCZ\22-May-2022\0\\#p UHF
 /aug-cc-pVQZ MP2=FC guess=read\\BH UHF at 1.3 Angstrom\\0,1\B,0,0.,0.,
 0.\H,0,1.3,0.,0.\\Version=ES64L-G16RevA.03\HF=-25.135245\MP2=-25.20115
 69\PUHF=-25.1449093\PMP2-0=-25.2105853\S2=0.461488\S2-1=0.438835\S2A=0
 .005148\RMSD=3.837e-10\PG=C*V [C*(H1B1)]\\@


 When cryptography is outlawed, bayl bhgynjf jvyy unir cevinpl.
 Job cpu time:       0 days  0 hours  0 minutes  9.8 seconds.
 Elapsed time:       0 days  0 hours  0 minutes  9.8 seconds.
 File lengths (MBytes):  RWF=     16 Int=      0 D2E=      0 Chk=     67 Scr=      1
 Normal termination of Gaussian 16 at Sun May 22 10:56:51 2022.

Sender: Unischeduler System <lcz@mgt01>
Subject: Job 133861: <#!/bin/bash
#BSUB -J intel
#BSUB -o BH-1.3-UMP2-G.out
#BSUB -n 8
#BSUB -q cqueue
#BSUB -R span[hosts=1]
export g16root=/apps/software
source /apps/software/g16/bsd/g16.profile
export GAUSS_SCRDIR=/scratch
/apps/software/g16/g16 < BH-1.3-UMP2-G.inp > BH-1.3-UMP2-G.out> Done

Job <#!/bin/bash
#BSUB -J intel
#BSUB -o BH-1.3-UMP2-G.out
#BSUB -n 8
#BSUB -q cqueue
#BSUB -R span[hosts=1]
export g16root=/apps/software
source /apps/software/g16/bsd/g16.profile
export GAUSS_SCRDIR=/scratch
/apps/software/g16/g16 < BH-1.3-UMP2-G.inp > BH-1.3-UMP2-G.out> was submitted from host <mgt01> by user <lcz>.
Job was executed on host(s) <8*cnode08>, in queue <cqueue>, as user <lcz>.
</apps/users/lcz> was used as the home directory.
</apps/users/lcz/exe13/UMP2> was used as the working directory.
Started at 2022-05-22 10:56:41
Results reported at 2022-05-22 10:56:51

Your job looked like:

------------------------------------------------------------
# User input
#!/bin/bash
#BSUB -J intel
#BSUB -o BH-1.3-UMP2-G.out
#BSUB -n 8
#BSUB -q cqueue
#BSUB -R span[hosts=1]
export g16root=/apps/software
source /apps/software/g16/bsd/g16.profile
export GAUSS_SCRDIR=/scratch
/apps/software/g16/g16 < BH-1.3-UMP2-G.inp > BH-1.3-UMP2-G.out
------------------------------------------------------------

Successfully completed.

Resource usage summary:

    CPU time   :            3.72 sec.
    Max Memory :               479 MB
    Max Processes  :               5


The output (if any) follows:

