
                                        *****************
                                        * O   R   C   A *
                                        *****************

                                            #,                                       
                                            ###                                      
                                            ####                                     
                                            #####                                    
                                            ######                                   
                                           ########,                                 
                                     ,,################,,,,,                         
                               ,,#################################,,                 
                          ,,##########################################,,             
                       ,#########################################, ''#####,          
                    ,#############################################,,   '####,        
                  ,##################################################,,,,####,       
                ,###########''''           ''''###############################       
              ,#####''   ,,,,##########,,,,          '''####'''          '####       
            ,##' ,,,,###########################,,,                        '##       
           ' ,,###''''                  '''############,,,                           
         ,,##''                                '''############,,,,        ,,,,,,###''
      ,#''                                            '''#######################'''  
     '                                                          ''''####''''         
             ,#######,   #######,   ,#######,      ##                                
            ,#'     '#,  ##    ##  ,#'     '#,    #''#        ######   ,####,        
            ##       ##  ##   ,#'  ##            #'  '#       #        #'  '#        
            ##       ##  #######   ##           ,######,      #####,   #    #        
            '#,     ,#'  ##    ##  '#,     ,#' ,#      #,         ##   #,  ,#        
             '#######'   ##     ##  '#######'  #'      '#     #####' # '####'        



                  #######################################################
                  #                        -***-                        #
                  #          Department of theory and spectroscopy      #
                  #    Directorship and core code : Frank Neese         #
                  #        Max Planck Institute fuer Kohlenforschung    #
                  #                Kaiser Wilhelm Platz 1               #
                  #                 D-45470 Muelheim/Ruhr               #
                  #                      Germany                        #
                  #                                                     #
                  #                  All rights reserved                #
                  #                        -***-                        #
                  #######################################################


                         Program Version 5.0.0 -  RELEASE  -
                                (SVN: $Rev: 19529$)
                ($Date: 2021-06-28 11:36:33 +0200 (Mo, 28 Jun 2021) $)


 With contributions from (in alphabetic order):
   Daniel Aravena         : Magnetic Suceptibility
   Michael Atanasov       : Ab Initio Ligand Field Theory (pilot matlab implementation)
   Alexander A. Auer      : GIAO ZORA, VPT2 properties, NMR spectrum
   Ute Becker             : Parallelization
   Giovanni Bistoni       : ED, misc. LED, open-shell LED, HFLD
   Martin Brehm           : Molecular dynamics
   Dmytro Bykov           : SCF Hessian
   Vijay G. Chilkuri      : MRCI spin determinant printing, contributions to CSF-ICE
   Dipayan Datta          : RHF DLPNO-CCSD density
   Achintya Kumar Dutta   : EOM-CC, STEOM-CC
   Dmitry Ganyushin       : Spin-Orbit,Spin-Spin,Magnetic field MRCI
   Miquel Garcia          : C-PCM Hessian, Gaussian charge scheme
   Yang Guo               : DLPNO-NEVPT2, F12-NEVPT2, CIM, IAO-localization
   Andreas Hansen         : Spin unrestricted coupled pair/coupled cluster methods
   Benjamin Helmich-Paris : MC-RPA, TRAH-SCF, COSX integrals
   Lee Huntington         : MR-EOM, pCC
   Robert Izsak           : Overlap fitted RIJCOSX, COSX-SCS-MP3, EOM
   Marcus Kettner         : VPT2
   Christian Kollmar      : KDIIS, OOCD, Brueckner-CCSD(T), CCSD density, CASPT2, CASPT2-K
   Simone Kossmann        : Meta GGA functionals, TD-DFT gradient, OOMP2, MP2 Hessian
   Martin Krupicka        : Initial AUTO-CI
   Lucas Lang             : DCDCAS
   Marvin Lechner         : AUTO-CI (C++ implementation), FIC-MRCC
   Dagmar Lenk            : GEPOL surface, SMD
   Dimitrios Liakos       : Extrapolation schemes; Compound Job, initial MDCI parallelization
   Dimitrios Manganas     : Further ROCIS development; embedding schemes
   Dimitrios Pantazis     : SARC Basis sets
   Anastasios Papadopoulos: AUTO-CI, single reference methods and gradients
   Taras Petrenko         : DFT Hessian,TD-DFT gradient, ASA, ECA, R-Raman, ABS, FL, XAS/XES, NRVS
   Peter Pinski           : DLPNO-MP2, DLPNO-MP2 Gradient
   Christoph Reimann      : Effective Core Potentials
   Marius Retegan         : Local ZFS, SOC
   Christoph Riplinger    : Optimizer, TS searches, QM/MM, DLPNO-CCSD(T), (RO)-DLPNO pert. Triples
   Tobias Risthaus        : Range-separated hybrids, TD-DFT gradient, RPA, STAB
   Michael Roemelt        : Original ROCIS implementation
   Masaaki Saitow         : Open-shell DLPNO-CCSD energy and density
   Barbara Sandhoefer     : DKH picture change effects
   Avijit Sen             : IP-ROCIS
   Kantharuban Sivalingam : CASSCF convergence, NEVPT2, FIC-MRCI
   Bernardo de Souza      : ESD, SOC TD-DFT
   Georgi Stoychev        : AutoAux, RI-MP2 NMR
   Willem Van den Heuvel  : Paramagnetic NMR
   Boris Wezisla          : Elementary symmetry handling
   Frank Wennmohs         : Technical directorship


 We gratefully acknowledge several colleagues who have allowed us to
 interface, adapt or use parts of their codes:
   Stefan Grimme, W. Hujo, H. Kruse, P. Pracht,  : VdW corrections, initial TS optimization,
                  C. Bannwarth, S. Ehlert          DFT functionals, gCP, sTDA/sTD-DF
   Ed Valeev, F. Pavosevic, A. Kumar             : LibInt (2-el integral package), F12 methods
   Garnet Chan, S. Sharma, J. Yang, R. Olivares  : DMRG
   Ulf Ekstrom                                   : XCFun DFT Library
   Mihaly Kallay                                 : mrcc  (arbitrary order and MRCC methods)
   Jiri Pittner, Ondrej Demel                    : Mk-CCSD
   Frank Weinhold                                : gennbo (NPA and NBO analysis)
   Christopher J. Cramer and Donald G. Truhlar   : smd solvation model
   Lars Goerigk                                  : TD-DFT with DH, B97 family of functionals
   V. Asgeirsson, H. Jonsson                     : NEB implementation
   FAccTs GmbH                                   : IRC, NEB, NEB-TS, DLPNO-Multilevel, CI-OPT
                                                   MM, QMMM, 2- and 3-layer-ONIOM, Crystal-QMMM,
                                                   LR-CPCM, SF, NACMEs, symmetry and pop. for TD-DFT,
                                                   nearIR, NL-DFT gradient (VV10), updates on ESD,
                                                   ML-optimized integration grids
   S Lehtola, MJT Oliveira, MAL Marques          : LibXC Library
   Liviu Ungur et al                             : ANISO software


 Your calculation uses the libint2 library for the computation of 2-el integrals
 For citations please refer to: http://libint.valeyev.net

 Your ORCA version has been built with support for libXC version: 5.1.0
 For citations please refer to: https://tddft.org/programs/libxc/

 This ORCA versions uses:
   CBLAS   interface :  Fast vector & matrix operations
   LAPACKE interface :  Fast linear algebra routines
   SCALAPACK package :  Parallel linear algebra routines
   Shared memory     :  Shared parallel matrices
   BLAS/LAPACK       :  OpenBLAS 0.3.15  USE64BITINT DYNAMIC_ARCH NO_AFFINITY SkylakeX SINGLE_THREADED
        Core in use  :  SkylakeX
   Copyright (c) 2011-2014, The OpenBLAS Project


================================================================================

----- Orbital basis set information -----
Your calculation utilizes the basis: aug-cc-pVQZ 
    H, B-Ne : Obtained from the ccRepo (grant-hill.group.shef.ac.uk/ccrepo) Feb. 2017
              R. A. Kendall, T. H. Dunning, Jr., R. J. Harrison, J. Chem. Phys. 96, 6796 (1992)
         He : Obtained from the ccRepo (grant-hill.group.shef.ac.uk/ccrepo) Feb. 2017
              D. E. Woon, T. H. Dunning, Jr., J. Chem. Phys. 100, 2975 (1994)
  Li-Be, Na : Obtained from the ccRepo (grant-hill.group.shef.ac.uk/ccrepo) Feb. 2017
              B. P. Prascher, D. E. Woon, K. A. Peterson, T. H. Dunning, Jr., A. K. Wilson, Theor. Chem. Acc. 128, 69 (2011)
         Mg : Obtained from the Peterson Research Group Website (tyr0.chem.wsu.edu/~kipeters) Feb. 2017
              B. P. Prascher, D. E. Woon, K. A. Peterson, T. H. Dunning, Jr., A. K. Wilson, Theor. Chem. Acc. 128, 69 (2011)
      Al-Ar : Obtained from the ccRepo (grant-hill.group.shef.ac.uk/ccrepo) Feb. 2017
              D. E. Woon, T. H. Dunning, Jr., J. Chem. Phys. 98, 1358 (1993)
      Sc-Zn : Obtained from the ccRepo (grant-hill.group.shef.ac.uk/ccrepo) Feb. 2017
              N. B. Balabanov, K. A. Peterson, J. Chem. Phys. 123, 064107 (2005)
              N. B. Balabanov, K. A. Peterson, J. Chem. Phys. 125, 074110 (2006)
      Ga-Kr : Obtained from the ccRepo (grant-hill.group.shef.ac.uk/ccrepo) Feb. 2017
              A. K. Wilson, D. E. Woon, K. A. Peterson, T. H. Dunning, Jr., J. Chem. Phys. 110, 7667 (1999)

================================================================================
                                        WARNINGS
                       Please study these warnings very carefully!
================================================================================


WARNING: No MP2 level density has been requested!
         To caclulate MP2 level properties use
         %mp2 Density relaxed end
         or
         %mp2 Density unrelaxed end

WARNING: Post HF methods need fully converged wavefunctions
  ===> : Setting SCFConvForced true
         You can overwrite this default with %scf ConvForced false 


INFO   : the flag for use of the SHARK integral package has been found!

================================================================================
                                       INPUT FILE
================================================================================
NAME = /scratch/BH-1.1-UMP2-O_383/BH-1.1-UMP2-O.inp
|  1> ! UHF MP2 aug-cc-pVQZ pal8 VeryTightSCF MOread
|  2> 
|  3> %moinp "BH-1.1-UHF-O.gbw"
|  4> 
|  5> *xyz 0 1
|  6>  B	0.0	0.0	0.0
|  7>  H	1.1	0.0	0.0
|  8> **                         ****END OF INPUT****
================================================================================

                       ****************************
                       * Single Point Calculation *
                       ****************************

---------------------------------
CARTESIAN COORDINATES (ANGSTROEM)
---------------------------------
  B      0.000000    0.000000    0.000000
  H      1.100000    0.000000    0.000000

----------------------------
CARTESIAN COORDINATES (A.U.)
----------------------------
  NO LB      ZA    FRAG     MASS         X           Y           Z
   0 B     5.0000    0    10.810    0.000000    0.000000    0.000000
   1 H     1.0000    0     1.008    2.078699    0.000000    0.000000

--------------------------------
INTERNAL COORDINATES (ANGSTROEM)
--------------------------------
 B      0   0   0     0.000000000000     0.00000000     0.00000000
 H      1   0   0     1.100000000000     0.00000000     0.00000000

---------------------------
INTERNAL COORDINATES (A.U.)
---------------------------
 B      0   0   0     0.000000000000     0.00000000     0.00000000
 H      1   0   0     2.078698747313     0.00000000     0.00000000

---------------------
BASIS SET INFORMATION
---------------------
There are 2 groups of distinct atoms

 Group   1 Type B   : 22s7p4d3f2g contracted to 6s5p4d3f2g pattern {991111/31111/1111/111/11}
 Group   2 Type H   : 7s4p3d2f contracted to 5s4p3d2f pattern {31111/1111/111/11}

Atom   0B    basis set group =>   1
Atom   1H    basis set group =>   2
--------------------------------------------------------------------------
WARNING: There was an error initializing an OpenFabrics device.

  Local host:   cnode12
  Local device: mlx5_0
--------------------------------------------------------------------------


           ************************************************************
           *        Program running with 8 parallel MPI-processes     *
           *              working on a common directory               *
           ************************************************************
------------------------------------------------------------------------------
                           ORCA GTO INTEGRAL CALCULATION
------------------------------------------------------------------------------
------------------------------------------------------------------------------
                   ___                                                        
                  /   \      - P O W E R E D   B Y -                         
                 /     \                                                     
                 |  |  |   _    _      __       _____    __    __             
                 |  |  |  | |  | |    /  \     |  _  \  |  |  /  |          
                  \  \/   | |  | |   /    \    | | | |  |  | /  /          
                 / \  \   | |__| |  /  /\  \   | |_| |  |  |/  /          
                |  |  |   |  __  | /  /__\  \  |    /   |      \           
                |  |  |   | |  | | |   __   |  |    \   |  |\   \          
                \     /   | |  | | |  |  |  |  | |\  \  |  | \   \       
                 \___/    |_|  |_| |__|  |__|  |_| \__\ |__|  \__/        
                                                                              
                      - O R C A' S   B I G   F R I E N D -                    
                                      &                                       
                       - I N T E G R A L  F E E D E R -                       
                                                                              
 v1 FN, 2020, v2 2021                                                         
------------------------------------------------------------------------------


Reading SHARK input file /scratch/BH-1.1-UMP2-O_383/BH-1.1-UMP2-O.SHARKINP.tmp ... ok
----------------------
SHARK INTEGRAL PACKAGE
----------------------

Number of atoms                             ...      2
Number of basis functions                   ...    126
Number of shells                            ...     34
Maximum angular momentum                    ...      4
Integral batch strategy                     ... SHARK/LIBINT Hybrid
RI-J (if used) integral strategy            ... SPLIT-RIJ (Revised 2003 algorithm where possible)
Printlevel                                  ...      1
Contraction scheme used                     ... SEGMENTED contraction
Coulomb Range Separation                    ... NOT USED
Exchange Range Separation                   ... NOT USED
Finite Nucleus Model                        ... NOT USED
Auxiliary Coulomb fitting basis             ... NOT available
Auxiliary J/K fitting basis                 ... NOT available
Auxiliary Correlation fitting basis         ... NOT available
Auxiliary 'external' fitting basis          ... NOT available
Integral threshold                          ...     1.000000e-12
Primitive cut-off                           ...     1.000000e-14
Primitive pair pre-selection threshold      ...     1.000000e-14

Calculating pre-screening integrals         ... done (  0.1 sec) Dimension = 34
Organizing shell pair data                  ... done (  0.0 sec)
Shell pair information
Total number of shell pairs                 ...       595
Shell pairs after pre-screening             ...       595
Total number of primitive shell pairs       ...      1563
Primitive shell pairs kept                  ...      1536
          la=0 lb=0:     66 shell pairs
          la=1 lb=0:     99 shell pairs
          la=1 lb=1:     45 shell pairs
          la=2 lb=0:     77 shell pairs
          la=2 lb=1:     63 shell pairs
          la=2 lb=2:     28 shell pairs
          la=3 lb=0:     55 shell pairs
          la=3 lb=1:     45 shell pairs
          la=3 lb=2:     35 shell pairs
          la=3 lb=3:     15 shell pairs
          la=4 lb=0:     22 shell pairs
          la=4 lb=1:     18 shell pairs
          la=4 lb=2:     14 shell pairs
          la=4 lb=3:     10 shell pairs
          la=4 lb=4:      3 shell pairs

Calculating one electron integrals          ... done (  0.0 sec)
Calculating Nuclear repulsion               ... done (  0.0 sec) ENN=      2.405350946818 Eh

SHARK setup successfully completed in   0.1 seconds

Maximum memory used throughout the entire GTOINT-calculation: 28.9 MB
[cnode12:272308] 7 more processes have sent help message help-mpi-btl-openib.txt / error in device init
[cnode12:272308] Set MCA parameter "orte_base_help_aggregate" to 0 to see all help / error messages
--------------------------------------------------------------------------
WARNING: There was an error initializing an OpenFabrics device.

  Local host:   cnode12
  Local device: mlx5_0
--------------------------------------------------------------------------


           ************************************************************
           *        Program running with 8 parallel MPI-processes     *
           *              working on a common directory               *
           ************************************************************
-------------------------------------------------------------------------------
                                 ORCA SCF
-------------------------------------------------------------------------------

------------
SCF SETTINGS
------------
Hamiltonian:
 Ab initio Hamiltonian  Method          .... Hartree-Fock(GTOs)


General Settings:
 Integral files         IntName         .... /scratch/BH-1.1-UMP2-O_383/BH-1.1-UMP2-O
 Hartree-Fock type      HFTyp           .... UHF
 Total Charge           Charge          ....    0
 Multiplicity           Mult            ....    1
 Number of Electrons    NEL             ....    6
 Basis Dimension        Dim             ....  126
 Nuclear Repulsion      ENuc            ....      2.4053509468 Eh

Convergence Acceleration:
 DIIS                   CNVDIIS         .... on
   Start iteration      DIISMaxIt       ....    12
   Startup error        DIISStart       ....  0.200000
   # of expansion vecs  DIISMaxEq       ....     5
   Bias factor          DIISBfac        ....   1.050
   Max. coefficient     DIISMaxC        ....  10.000
 Trust-Rad. Augm. Hess. CNVTRAH         .... auto
   Auto Start mean grad. ratio tolernc. ....  1.125000
   Auto Start start iteration           ....     1
   Auto Start num. interpolation iter.  ....    10
   Max. Number of Micro iterations      ....    16
   Max. Number of Macro iterations      .... Maxiter - #DIIS iter
   Number of Davidson start vectors     ....     2
   Converg. threshold I  (grad. norm)   ....   2.000e-06
   Converg. threshold II (energy diff.) ....   1.000e-09
   Grad. Scal. Fac. for Micro threshold ....   0.100
   Minimum threshold for Micro iter.    ....   0.010
   NR start threshold (gradient norm)   ....   0.001
   Initial trust radius                 ....   0.400
   Minimum AH scaling param. (alpha)    ....   1.000
   Maximum AH scaling param. (alpha)    .... 1000.000
   Orbital update algorithm             .... Taylor
   White noise on init. David. guess    .... on
   Maximum white noise                  ....   0.010
   Quad. conv. algorithm                .... NR
 SOSCF                  CNVSOSCF        .... off
 Level Shifting         CNVShift        .... on
   Level shift para.    LevelShift      ....    0.2500
   Turn off err/grad.   ShiftErr        ....    0.0010
 Zerner damping         CNVZerner       .... off
 Static damping         CNVDamp         .... on
   Fraction old density DampFac         ....    0.7000
   Max. Damping (<1)    DampMax         ....    0.9800
   Min. Damping (>=0)   DampMin         ....    0.0000
   Turn off err/grad.   DampErr         ....    0.1000
 Fernandez-Rico         CNVRico         .... off

SCF Procedure:
 Maximum # iterations   MaxIter         ....   125
 SCF integral mode      SCFMode         .... Direct
   Integral package                     .... SHARK and LIBINT hybrid scheme
 Reset frequency        DirectResetFreq ....    20
 Integral Threshold     Thresh          ....  1.000e-12 Eh
 Primitive CutOff       TCut            ....  1.000e-14 Eh

Convergence Tolerance:
 Convergence Check Mode ConvCheckMode   .... Total+1el-Energy
 Convergence forced     ConvForced      .... 1
 Energy Change          TolE            ....  1.000e-09 Eh
 1-El. energy change                    ....  1.000e-06 Eh
 DIIS Error             TolErr          ....  1.000e-08


Diagonalization of the overlap matrix:
Smallest eigenvalue                        ... 8.246e-05
Time for diagonalization                   ...    0.002 sec
Threshold for overlap eigenvalues          ... 1.000e-08
Number of eigenvalues below threshold      ... 0
Time for construction of square roots      ...    0.002 sec
Total time needed                          ...    0.005 sec

---------------------
INITIAL GUESS: MOREAD
---------------------
Guess MOs are being read from file: BH-1.1-UHF-O.gbw
Input Geometry matches current geometry (good)
Input basis set matches current basis set (good)
MOs were renormalized
MOs were reorthogonalized (Cholesky)
                      ------------------
                      INITIAL GUESS DONE (   0.0 sec)
                      ------------------
--------------
SCF ITERATIONS
--------------
ITER       Energy         Delta-E        Max-DP      RMS-DP      [F,P]     Damp
               ***  Starting incremental Fock matrix formation  ***
  0    -25.1320904117   0.000000000000 0.00000000  0.00000000  0.0000000 0.7000
                 **** Energy Check signals convergence ****

               *****************************************************
               *                     SUCCESS                       *
               *           SCF CONVERGED AFTER   1 CYCLES          *
               *****************************************************


----------------
TOTAL SCF ENERGY
----------------

Total Energy       :          -25.13209041 Eh            -683.87895 eV

Components:
Nuclear Repulsion  :            2.40535095 Eh              65.45293 eV
Electronic Energy  :          -27.53744136 Eh            -749.33187 eV
One Electron Energy:          -37.66912370 Eh           -1025.02897 eV
Two Electron Energy:           10.13168235 Eh             275.69709 eV

Virial components:
Potential Energy   :          -50.39370927 Eh           -1371.28254 eV
Kinetic Energy     :           25.26161885 Eh             687.40360 eV
Virial Ratio       :            1.99487252


---------------
SCF CONVERGENCE
---------------

  Last Energy change         ...   -1.6485e-12  Tolerance :   1.0000e-09
  Last MAX-Density change    ...    4.2406e-09  Tolerance :   1.0000e-08
  Last RMS-Density change    ...    1.1279e-10  Tolerance :   1.0000e-09
  Last DIIS Error            ...    7.2565e-09  Tolerance :   1.0000e-08

             **** THE GBW FILE WAS UPDATED (/scratch/BH-1.1-UMP2-O_383/BH-1.1-UMP2-O.gbw) ****
             **** DENSITY /scratch/BH-1.1-UMP2-O_383/BH-1.1-UMP2-O.scfp WAS UPDATED ****
             **** ENERGY FILE WAS UPDATED (/scratch/BH-1.1-UMP2-O_383/BH-1.1-UMP2-O.en.tmp) ****
----------------------
UHF SPIN CONTAMINATION
----------------------

Expectation value of <S**2>     :     0.507896
Ideal value S*(S+1) for S=0.0   :     0.000000
Deviation                       :     0.507896

             **** THE GBW FILE WAS UPDATED (/scratch/BH-1.1-UMP2-O_383/BH-1.1-UMP2-O.gbw) ****
             **** DENSITY /scratch/BH-1.1-UMP2-O_383/BH-1.1-UMP2-O.scfp WAS UPDATED ****
----------------
ORBITAL ENERGIES
----------------
                 SPIN UP ORBITALS
  NO   OCC          E(Eh)            E(eV) 
   0   1.0000      -7.658880      -208.4087 
   1   1.0000      -0.674670       -18.3587 
   2   1.0000      -0.369329       -10.0500 
   3   0.0000       0.026316         0.7161 
   4   0.0000       0.029400         0.8000 
   5   0.0000       0.033812         0.9201 
   6   0.0000       0.044058         1.1989 
   7   0.0000       0.082006         2.2315 
   8   0.0000       0.088783         2.4159 
   9   0.0000       0.118043         3.2121 
  10   0.0000       0.132664         3.6100 
  11   0.0000       0.134968         3.6727 
  12   0.0000       0.146654         3.9906 
  13   0.0000       0.146711         3.9922 
  14   0.0000       0.150147         4.0857 
  15   0.0000       0.183925         5.0048 
  16   0.0000       0.271258         7.3813 
  17   0.0000       0.275091         7.4856 
  18   0.0000       0.277100         7.5403 
  19   0.0000       0.321663         8.7529 
  20   0.0000       0.322690         8.7808 
  21   0.0000       0.410489        11.1700 
  22   0.0000       0.433823        11.8049 
  23   0.0000       0.448070        12.1926 
  24   0.0000       0.448143        12.1946 
  25   0.0000       0.463494        12.6123 
  26   0.0000       0.463530        12.6133 
  27   0.0000       0.474194        12.9035 
  28   0.0000       0.478140        13.0109 
  29   0.0000       0.504922        13.7396 
  30   0.0000       0.505010        13.7420 
  31   0.0000       0.517722        14.0879 
  32   0.0000       0.552251        15.0275 
  33   0.0000       0.600752        16.3473 
  34   0.0000       0.604178        16.4405 
  35   0.0000       0.768855        20.9216 
  36   0.0000       0.780125        21.2283 
  37   0.0000       0.782298        21.2874 
  38   0.0000       0.806304        21.9407 
  39   0.0000       0.806398        21.9432 
  40   0.0000       0.916565        24.9410 
  41   0.0000       1.052924        28.6515 
  42   0.0000       1.054919        28.7058 
  43   0.0000       1.093259        29.7491 
  44   0.0000       1.182674        32.1822 
  45   0.0000       1.186732        32.2926 
  46   0.0000       1.367118        37.2012 
  47   0.0000       1.374906        37.4131 
  48   0.0000       1.374906        37.4131 
  49   0.0000       1.379979        37.5511 
  50   0.0000       1.379980        37.5512 
  51   0.0000       1.395019        37.9604 
  52   0.0000       1.395205        37.9655 
  53   0.0000       1.440745        39.2047 
  54   0.0000       1.440874        39.2082 
  55   0.0000       1.453036        39.5391 
  56   0.0000       1.453056        39.5397 
  57   0.0000       1.463666        39.8284 
  58   0.0000       1.469511        39.9874 
  59   0.0000       1.474550        40.1245 
  60   0.0000       1.579037        42.9678 
  61   0.0000       1.603568        43.6353 
  62   0.0000       1.610124        43.8137 
  63   0.0000       1.667809        45.3834 
  64   0.0000       1.667975        45.3879 
  65   0.0000       1.842175        50.1281 
  66   0.0000       1.870822        50.9077 
  67   0.0000       1.874993        51.0211 
  68   0.0000       1.896080        51.5950 
  69   0.0000       1.943398        52.8826 
  70   0.0000       1.943401        52.8826 
  71   0.0000       2.033976        55.3473 
  72   0.0000       2.033999        55.3479 
  73   0.0000       2.206674        60.0466 
  74   0.0000       2.259532        61.4850 
  75   0.0000       2.265287        61.6416 
  76   0.0000       2.758940        75.0746 
  77   0.0000       3.134325        85.2893 
  78   0.0000       3.138470        85.4021 
  79   0.0000       3.227330        87.8201 
  80   0.0000       3.231929        87.9453 
  81   0.0000       3.238617        88.1273 
  82   0.0000       3.238828        88.1330 
  83   0.0000       3.298580        89.7589 
  84   0.0000       3.769393       102.5704 
  85   0.0000       3.931328       106.9769 
  86   0.0000       3.931328       106.9769 
  87   0.0000       3.941301       107.2482 
  88   0.0000       3.941303       107.2483 
  89   0.0000       4.013610       109.2159 
  90   0.0000       4.023705       109.4906 
  91   0.0000       4.030441       109.6739 
  92   0.0000       4.030525       109.6762 
  93   0.0000       4.071129       110.7811 
  94   0.0000       4.071513       110.7915 
  95   0.0000       4.109322       111.8203 
  96   0.0000       4.109323       111.8204 
  97   0.0000       4.153707       113.0281 
  98   0.0000       4.258906       115.8907 
  99   0.0000       4.267768       116.1319 
 100   0.0000       4.406953       119.9193 
 101   0.0000       4.415279       120.1458 
 102   0.0000       4.492354       122.2432 
 103   0.0000       4.494209       122.2936 
 104   0.0000       4.507513       122.6557 
 105   0.0000       5.211763       141.8193 
 106   0.0000       5.612406       152.7213 
 107   0.0000       5.618329       152.8825 
 108   0.0000       5.636888       153.3875 
 109   0.0000       6.793245       184.8536 
 110   0.0000       6.793245       184.8536 
 111   0.0000       7.442642       202.5246 
 112   0.0000       7.442649       202.5248 
 113   0.0000       7.860188       213.8866 
 114   0.0000       7.915959       215.4042 
 115   0.0000       7.918939       215.4853 
 116   0.0000       8.495694       231.1796 
 117   0.0000       8.942301       243.3324 
 118   0.0000       8.942304       243.3325 
 119   0.0000       9.270515       252.2635 
 120   0.0000       9.273014       252.3315 
 121   0.0000       9.405660       255.9410 
 122   0.0000       9.409618       256.0487 
 123   0.0000      10.102451       274.9017 
 124   0.0000      10.682675       290.6904 
 125   0.0000      17.119998       465.8588 

                 SPIN DOWN ORBITALS
  NO   OCC          E(Eh)            E(eV) 
   0   1.0000      -7.658880      -208.4087 
   1   1.0000      -0.674670       -18.3587 
   2   1.0000      -0.369329       -10.0500 
   3   0.0000       0.026316         0.7161 
   4   0.0000       0.029400         0.8000 
   5   0.0000       0.033812         0.9201 
   6   0.0000       0.044058         1.1989 
   7   0.0000       0.082006         2.2315 
   8   0.0000       0.088783         2.4159 
   9   0.0000       0.118043         3.2121 
  10   0.0000       0.132664         3.6100 
  11   0.0000       0.134968         3.6727 
  12   0.0000       0.146654         3.9906 
  13   0.0000       0.146711         3.9922 
  14   0.0000       0.150147         4.0857 
  15   0.0000       0.183925         5.0048 
  16   0.0000       0.271258         7.3813 
  17   0.0000       0.275091         7.4856 
  18   0.0000       0.277100         7.5403 
  19   0.0000       0.321663         8.7529 
  20   0.0000       0.322690         8.7808 
  21   0.0000       0.410489        11.1700 
  22   0.0000       0.433823        11.8049 
  23   0.0000       0.448070        12.1926 
  24   0.0000       0.448143        12.1946 
  25   0.0000       0.463494        12.6123 
  26   0.0000       0.463530        12.6133 
  27   0.0000       0.474194        12.9035 
  28   0.0000       0.478140        13.0109 
  29   0.0000       0.504922        13.7396 
  30   0.0000       0.505010        13.7420 
  31   0.0000       0.517722        14.0879 
  32   0.0000       0.552251        15.0275 
  33   0.0000       0.600752        16.3473 
  34   0.0000       0.604178        16.4405 
  35   0.0000       0.768855        20.9216 
  36   0.0000       0.780125        21.2283 
  37   0.0000       0.782298        21.2874 
  38   0.0000       0.806304        21.9407 
  39   0.0000       0.806398        21.9432 
  40   0.0000       0.916565        24.9410 
  41   0.0000       1.052924        28.6515 
  42   0.0000       1.054919        28.7058 
  43   0.0000       1.093259        29.7491 
  44   0.0000       1.182674        32.1822 
  45   0.0000       1.186732        32.2926 
  46   0.0000       1.367118        37.2012 
  47   0.0000       1.374906        37.4131 
  48   0.0000       1.374906        37.4131 
  49   0.0000       1.379979        37.5511 
  50   0.0000       1.379980        37.5512 
  51   0.0000       1.395019        37.9604 
  52   0.0000       1.395205        37.9655 
  53   0.0000       1.440745        39.2047 
  54   0.0000       1.440874        39.2082 
  55   0.0000       1.453036        39.5391 
  56   0.0000       1.453056        39.5397 
  57   0.0000       1.463666        39.8284 
  58   0.0000       1.469511        39.9874 
  59   0.0000       1.474550        40.1245 
  60   0.0000       1.579037        42.9678 
  61   0.0000       1.603568        43.6353 
  62   0.0000       1.610124        43.8137 
  63   0.0000       1.667809        45.3834 
  64   0.0000       1.667975        45.3879 
  65   0.0000       1.842175        50.1281 
  66   0.0000       1.870822        50.9077 
  67   0.0000       1.874993        51.0211 
  68   0.0000       1.896080        51.5950 
  69   0.0000       1.943398        52.8826 
  70   0.0000       1.943401        52.8826 
  71   0.0000       2.033976        55.3473 
  72   0.0000       2.033999        55.3479 
  73   0.0000       2.206674        60.0466 
  74   0.0000       2.259532        61.4850 
  75   0.0000       2.265287        61.6416 
  76   0.0000       2.758940        75.0746 
  77   0.0000       3.134325        85.2893 
  78   0.0000       3.138470        85.4021 
  79   0.0000       3.227330        87.8201 
  80   0.0000       3.231929        87.9453 
  81   0.0000       3.238617        88.1273 
  82   0.0000       3.238828        88.1330 
  83   0.0000       3.298580        89.7589 
  84   0.0000       3.769393       102.5704 
  85   0.0000       3.931328       106.9769 
  86   0.0000       3.931328       106.9769 
  87   0.0000       3.941301       107.2482 
  88   0.0000       3.941303       107.2483 
  89   0.0000       4.013610       109.2159 
  90   0.0000       4.023705       109.4906 
  91   0.0000       4.030441       109.6739 
  92   0.0000       4.030525       109.6762 
  93   0.0000       4.071129       110.7811 
  94   0.0000       4.071513       110.7915 
  95   0.0000       4.109322       111.8203 
  96   0.0000       4.109323       111.8204 
  97   0.0000       4.153707       113.0281 
  98   0.0000       4.258906       115.8907 
  99   0.0000       4.267768       116.1319 
 100   0.0000       4.406953       119.9193 
 101   0.0000       4.415279       120.1458 
 102   0.0000       4.492354       122.2432 
 103   0.0000       4.494209       122.2936 
 104   0.0000       4.507513       122.6557 
 105   0.0000       5.211763       141.8193 
 106   0.0000       5.612406       152.7213 
 107   0.0000       5.618329       152.8825 
 108   0.0000       5.636888       153.3875 
 109   0.0000       6.793245       184.8536 
 110   0.0000       6.793245       184.8536 
 111   0.0000       7.442642       202.5246 
 112   0.0000       7.442649       202.5248 
 113   0.0000       7.860188       213.8866 
 114   0.0000       7.915959       215.4042 
 115   0.0000       7.918939       215.4853 
 116   0.0000       8.495694       231.1796 
 117   0.0000       8.942301       243.3324 
 118   0.0000       8.942304       243.3325 
 119   0.0000       9.270515       252.2635 
 120   0.0000       9.273014       252.3315 
 121   0.0000       9.405660       255.9410 
 122   0.0000       9.409618       256.0487 
 123   0.0000      10.102451       274.9017 
 124   0.0000      10.682675       290.6904 
 125   0.0000      17.119998       465.8588 

                    ********************************
                    * MULLIKEN POPULATION ANALYSIS *
                    ********************************

--------------------------------------------
MULLIKEN ATOMIC CHARGES AND SPIN POPULATIONS
--------------------------------------------
   0 B :    0.089795   -0.000000
   1 H :   -0.089795    0.000000
Sum of atomic charges         :   -0.0000000
Sum of atomic spin populations:   -0.0000000

-----------------------------------------------------
MULLIKEN REDUCED ORBITAL CHARGES AND SPIN POPULATIONS
-----------------------------------------------------
CHARGE
  0 B s       :     3.593512  s :     3.593512
      pz      :     0.074179  p :     1.277301
      px      :     0.986362
      py      :     0.216760
      dz2     :     0.007370  d :     0.037228
      dxz     :     0.000784
      dyz     :     0.000357
      dx2y2   :     0.026427
      dxy     :     0.002290
      f0      :     0.000007  f :     0.001878
      f+1     :     0.000642
      f-1     :     0.000005
      f+2     :     0.000021
      f-2     :     0.000010
      f+3     :     0.001121
      f-3     :     0.000073
      g0      :     0.000037  g :     0.000286
      g+1     :     0.000001
      g-1     :     0.000000
      g+2     :     0.000084
      g-2     :     0.000001
      g+3     :     0.000001
      g-3     :     0.000000
      g+4     :     0.000157
      g-4     :     0.000006
  1 H s       :     1.082583  s :     1.082583
      pz      :     0.000972  p :     0.007601
      px      :     0.003787
      py      :     0.002841
      dz2     :    -0.000144  d :    -0.000621
      dxz     :     0.000016
      dyz     :     0.000004
      dx2y2   :    -0.000544
      dxy     :     0.000046
      f0      :     0.000011  f :     0.000233
      f+1     :     0.000042
      f-1     :     0.000006
      f+2     :     0.000021
      f-2     :     0.000001
      f+3     :     0.000063
      f-3     :     0.000088

SPIN
  0 B s       :    -0.000000  s :    -0.000000
      pz      :     0.000000  p :     0.000000
      px      :     0.000000
      py      :     0.000000
      dz2     :     0.000000  d :     0.000000
      dxz     :    -0.000000
      dyz     :     0.000000
      dx2y2   :     0.000000
      dxy     :    -0.000000
      f0      :     0.000000  f :     0.000000
      f+1     :     0.000000
      f-1     :     0.000000
      f+2     :     0.000000
      f-2     :     0.000000
      f+3     :     0.000000
      f-3     :     0.000000
      g0      :     0.000000  g :     0.000000
      g+1     :     0.000000
      g-1     :    -0.000000
      g+2     :     0.000000
      g-2     :     0.000000
      g+3     :     0.000000
      g-3     :    -0.000000
      g+4     :     0.000000
      g-4     :     0.000000
  1 H s       :     0.000000  s :     0.000000
      pz      :    -0.000000  p :     0.000000
      px      :     0.000000
      py      :    -0.000000
      dz2     :    -0.000000  d :    -0.000000
      dxz     :    -0.000000
      dyz     :     0.000000
      dx2y2   :    -0.000000
      dxy     :    -0.000000
      f0      :    -0.000000  f :    -0.000000
      f+1     :    -0.000000
      f-1     :    -0.000000
      f+2     :    -0.000000
      f-2     :    -0.000000
      f+3     :    -0.000000
      f-3     :    -0.000000


                     *******************************
                     * LOEWDIN POPULATION ANALYSIS *
                     *******************************

-------------------------------------------
LOEWDIN ATOMIC CHARGES AND SPIN POPULATIONS
-------------------------------------------
   0 B :    0.568224   -0.000000
   1 H :   -0.568224    0.000000

----------------------------------------------------
LOEWDIN REDUCED ORBITAL CHARGES AND SPIN POPULATIONS
----------------------------------------------------
CHARGE
  0 B s       :     3.031007  s :     3.031007
      pz      :     0.053256  p :     1.314325
      px      :     1.105448
      py      :     0.155620
      dz2     :     0.014746  d :     0.070469
      dxz     :     0.001947
      dyz     :     0.000299
      dx2y2   :     0.047790
      dxy     :     0.005688
      f0      :     0.000017  f :     0.012501
      f+1     :     0.004624
      f-1     :     0.000009
      f+2     :     0.000034
      f-2     :     0.000018
      f+3     :     0.007661
      f-3     :     0.000138
      g0      :     0.000481  g :     0.003474
      g+1     :     0.000008
      g-1     :     0.000000
      g+2     :     0.001069
      g-2     :     0.000005
      g+3     :     0.000006
      g-3     :     0.000000
      g+4     :     0.001869
      g-4     :     0.000035
  1 H s       :     1.050273  s :     1.050273
      pz      :     0.010827  p :     0.353520
      px      :     0.311053
      py      :     0.031639
      dz2     :     0.024015  d :     0.122601
      dxz     :     0.007516
      dyz     :     0.000037
      dx2y2   :     0.069070
      dxy     :     0.021963
      f0      :     0.000892  f :     0.041830
      f+1     :     0.012314
      f-1     :     0.000439
      f+2     :     0.001509
      f-2     :     0.000018
      f+3     :     0.020079
      f-3     :     0.006579

SPIN
  0 B s       :    -0.000000  s :    -0.000000
      pz      :     0.000000  p :     0.000000
      px      :     0.000000
      py      :     0.000000
      dz2     :    -0.000000  d :    -0.000000
      dxz     :     0.000000
      dyz     :     0.000000
      dx2y2   :    -0.000000
      dxy     :     0.000000
      f0      :     0.000000  f :    -0.000000
      f+1     :    -0.000000
      f-1     :     0.000000
      f+2     :     0.000000
      f-2     :     0.000000
      f+3     :    -0.000000
      f-3     :     0.000000
      g0      :     0.000000  g :     0.000000
      g+1     :    -0.000000
      g-1     :    -0.000000
      g+2     :     0.000000
      g-2     :    -0.000000
      g+3     :    -0.000000
      g-3     :    -0.000000
      g+4     :     0.000000
      g-4     :     0.000000
  1 H s       :     0.000000  s :     0.000000
      pz      :     0.000000  p :     0.000000
      px      :     0.000000
      py      :    -0.000000
      dz2     :    -0.000000  d :     0.000000
      dxz     :     0.000000
      dyz     :     0.000000
      dx2y2   :    -0.000000
      dxy     :     0.000000
      f0      :     0.000000  f :     0.000000
      f+1     :     0.000000
      f-1     :    -0.000000
      f+2     :    -0.000000
      f-2     :     0.000000
      f+3     :     0.000000
      f-3     :    -0.000000


                      *****************************
                      * MAYER POPULATION ANALYSIS *
                      *****************************

  NA   - Mulliken gross atomic population
  ZA   - Total nuclear charge
  QA   - Mulliken gross atomic charge
  VA   - Mayer's total valence
  BVA  - Mayer's bonded valence
  FA   - Mayer's free valence

  ATOM       NA         ZA         QA         VA         BVA        FA
  0 B      4.9102     5.0000     0.0898     1.8957     0.8815     1.0142
  1 H      1.0898     1.0000    -0.0898     0.8865     0.8815     0.0049

  Mayer bond orders larger than 0.100000
B(  0-B ,  1-H ) :   0.8815 

-------
TIMINGS
-------

Total SCF time: 0 days 0 hours 0 min 0 sec 

Total time                  ....       0.472 sec
Sum of individual times     ....       0.325 sec  ( 68.8%)

Fock matrix formation       ....       0.297 sec  ( 62.9%)
Diagonalization             ....       0.011 sec  (  2.4%)
Density matrix formation    ....       0.000 sec  (  0.1%)
Population analysis         ....       0.005 sec  (  1.1%)
Initial guess               ....       0.006 sec  (  1.4%)
Orbital Transformation      ....       0.000 sec  (  0.0%)
Orbital Orthonormalization  ....       0.003 sec  (  0.7%)
DIIS solution               ....       0.004 sec  (  0.9%)

Maximum memory used throughout the entire SCF-calculation: 228.7 MB
[cnode12:272368] 7 more processes have sent help message help-mpi-btl-openib.txt / error in device init
[cnode12:272368] Set MCA parameter "orte_base_help_aggregate" to 0 to see all help / error messages
--------------------------------------------------------------------------
WARNING: There was an error initializing an OpenFabrics device.

  Local host:   cnode12
  Local device: mlx5_0
--------------------------------------------------------------------------


           ************************************************************
           *        Program running with 8 parallel MPI-processes     *
           *              working on a common directory               *
           ************************************************************

------------------------------------------------------------------------------
                                ORCA  MP2 
------------------------------------------------------------------------------

Freezing NCore=2 chemical core electrons

----------
MP2 ENERGY (disk based algorithm)
----------

Dimension of the basis                    ...  126
Memory devoted to MP2                     ...  256 MB   
Data format for buffers                   ... DOUBLE
Compression type for matrix containers    ... UNCOMPRESSED

-------------------------------
PARTIAL EXCHANGE TRANSFORMATION
-------------------------------

Transformation type                        ... two-operators
Generation of integrals (i,mue|j,nue)      ... ON
Generation of integrals (mue,kappa|nue,tau)... OFF
Generation of integrals (i,mue|a,nue)      ... OFF
Dimension of the basis                     ...  126
Number of internal alpha-MOs               ...    2 (   1-   2)
Number of internal beta-MOs                ...    2 (   1-   2)
Pair cutoff                                ... 1.000e-14 Eh
Number of AO pairs in the trafo            ... 8001
Total Number of distinct AO pairs          ... 8001
Memory devoted for trafo                   ...  256.0 MB 
Max. Number of MO pairs treated together   ... 2113      
Number Format for Storage                  ... Double (8 Byte)
Integral package used                      ... LIBINT

Starting integral evaluation:
    ... done with AO integral generation
Closing buffer AOK[aa] ( 0.00 GB; CompressionRatio= 0.43)
Closing buffer AOK[bb] ( 0.00 GB; CompressionRatio= 0.43)
Closing buffer AOK[ab] ( 0.00 GB; CompressionRatio= 0.43)
Closing buffer AOK[ba] ( 0.00 GB; CompressionRatio= 0.43)
Collecting buffer AOK 
Number of alpha/alpha MO pairs in trafo    ...    3
Number of beta /beta  MO pairs in trafo    ...    3
Number of alpha/ beta MO pairs in trafo    ...    4
------------------------
SORTING OF (i,mue|j,nue)
------------------------

SORTING OF ALPHA/ALPHA PAIRS
IBATCH = 1 of  1
Closing buffer KAO[aa] ( 0.00 GB; CompressionRatio= 1.00)
Collecting buffer KAO 
SORTING OF BETA /BETA  PAIRS
IBATCH = 1 of  1
Closing buffer KAO[bb] ( 0.00 GB; CompressionRatio= 1.00)
Collecting buffer KAO 
SORTING OF ALPHA/BETA  PAIRS
IBATCH = 1 of  1
Closing buffer KAO[ab] ( 0.00 GB; CompressionRatio= 0.999905526689)
Collecting buffer KAO[ab] 
N(AO-Batches) Done                         ...     69360 
N(AO-Batches) Skipped                      ...         0 
N(IJ)-pairs Skipped                        ...         0 
TOTAL TIME for half transformation         ...     0.964 sec
AO-integral generation                     ...     0.404 sec
Half transformation                        ...     0.037 sec
K-integral sorting                         ...     0.039 sec

Finished integral transformation - now doing MP2 part

OPERATOR COMBINATION   0   0: ij=(  1..  2,  1..  2)
OPERATOR COMBINATION   0   1: ij=(  1..  2,  1..  2)
OPERATOR COMBINATION   1   1: ij=(  1..  2,  1..  2)

Correlation energy components
 E2 and T2 for alpha/alpha pairs :     -0.002509461 Eh 
 E2 and T2 for beta/beta   pairs :     -0.002509461 Eh 
 E2 and T2 for alpha/beta  pairs :     -0.059527211 Eh 

-----------------------------------------------
 MP2 CORRELATION ENERGY   :     -0.064546133 Eh
-----------------------------------------------


-------
TIMINGS
-------
Total time                :    1.066 sec
Integral trafo            :    0.967 sec ( 90.7%)
K(i,j)                    :    0.000 sec (  0.0%)
T(i,j)                    :    0.000 sec (  0.0%)

---------------------------------------
MP2 TOTAL ENERGY:      -25.196636545 Eh
---------------------------------------

Maximum memory used throughout the entire MP2-calculation: 78.7 MB
[cnode12:272439] 7 more processes have sent help message help-mpi-btl-openib.txt / error in device init
[cnode12:272439] Set MCA parameter "orte_base_help_aggregate" to 0 to see all help / error messages

-------------------------   --------------------
FINAL SINGLE POINT ENERGY       -25.196636544889
-------------------------   --------------------


                            ***************************************
                            *     ORCA property calculations      *
                            ***************************************


  WARNING: The energy has been calculated at the MP2 level but the densities
           used in the property calculations are still SCF densities
           MP2 response densities have not been calculated 
           use %mp2 Density relaxed end
           or  %mp2 Density unrelaxed end

                                    ---------------------
                                    Active property flags
                                    ---------------------
   (+) Dipole Moment


------------------------------------------------------------------------------
                       ORCA ELECTRIC PROPERTIES CALCULATION
------------------------------------------------------------------------------

Dipole Moment Calculation                       ... on
Quadrupole Moment Calculation                   ... off
Polarizability Calculation                      ... off
GBWName                                         ... /scratch/BH-1.1-UMP2-O_383/BH-1.1-UMP2-O.gbw
Electron density file                           ... /scratch/BH-1.1-UMP2-O_383/BH-1.1-UMP2-O.scfp
The origin for moment calculation is the CENTER OF MASS  = ( 0.177300,  0.000000  0.000000)

-------------
DIPOLE MOMENT
-------------
                                X             Y             Z
Electronic contribution:     -0.42356       0.00000      -0.00000
Nuclear contribution   :      1.01490       0.00000       0.00000
                        -----------------------------------------
Total Dipole Moment    :      0.59134       0.00000      -0.00000
                        -----------------------------------------
Magnitude (a.u.)       :      0.59134
Magnitude (Debye)      :      1.50307



--------------------
Rotational spectrum 
--------------------
 
Rotational constants in cm-1:     0.000000    15.110168    15.110168 
Rotational constants in MHz :     0.000000 452991.437720 452991.437720 

 Dipole components along the rotational axes: 
x,y,z [a.u.] :     0.591342     0.000000    -0.000000 
x,y,z [Debye]:     1.503071     0.000000    -0.000000 

 
--------------------------------------------------------------------------
WARNING: There was an error initializing an OpenFabrics device.

  Local host:   cnode12
  Local device: mlx5_0
--------------------------------------------------------------------------
[cnode12:272622] 7 more processes have sent help message help-mpi-btl-openib.txt / error in device init
[cnode12:272622] Set MCA parameter "orte_base_help_aggregate" to 0 to see all help / error messages

Timings for individual modules:

Sum of individual times         ...        2.787 sec (=   0.046 min)
GTO integral calculation        ...        0.497 sec (=   0.008 min)  17.8 %
SCF iterations                  ...        0.838 sec (=   0.014 min)  30.1 %
MP2 module                      ...        1.452 sec (=   0.024 min)  52.1 %
                             ****ORCA TERMINATED NORMALLY****
TOTAL RUN TIME: 0 days 0 hours 0 minutes 3 seconds 246 msec

Sender: Unischeduler System <lcz@mgt01>
Subject: Job 133923: <#!/bin/bash
#BSUB -J intel
#BSUB -o BH-1.1-UMP2-O.out
#BSUB -n 8
#BSUB -q cqueue
export LD_LIBRARY_PATH=/apps/software/openmpi-4.1.1/lib:/apps/software/orca_5_0_0:$LD_LIBRARY_PATH
export PATH=/apps/software/openmpi-4.1.1/bin:/apps/software/orca_5_0_0:$PATH
mkdir /scratch/BH-1.1-UMP2-O_383
scp $USER@mgt01:/apps/users/lcz/exe13/UMP2/BH-1.1-UMP2-O.inp /scratch/BH-1.1-UMP2-O_383
scp $USER@mgt01:/apps/users/lcz/exe13/UMP2/BH-1.1-UHF-O.gbw /scratch/BH-1.1-UMP2-O_383
/apps/software/orca_5_0_0/orca /scratch/BH-1.1-UMP2-O_383/BH-1.1-UMP2-O.inp >& BH-1.1-UMP2-O.out
scp /scratch/BH-1.1-UMP2-O_383/*.gbw $USER@mgt01:/apps/users/lcz/exe13/UMP2
scp /scratch/BH-1.1-UMP2-O_383/*.xyz $USER@mgt01:/apps/users/lcz/exe13/UMP2
scp /scratch/BH-1.1-UMP2-O_383/*.trj $USER@mgt01:/apps/users/lcz/exe13/UMP2> Exited

Job <#!/bin/bash
#BSUB -J intel
#BSUB -o BH-1.1-UMP2-O.out
#BSUB -n 8
#BSUB -q cqueue
export LD_LIBRARY_PATH=/apps/software/openmpi-4.1.1/lib:/apps/software/orca_5_0_0:$LD_LIBRARY_PATH
export PATH=/apps/software/openmpi-4.1.1/bin:/apps/software/orca_5_0_0:$PATH
mkdir /scratch/BH-1.1-UMP2-O_383
scp $USER@mgt01:/apps/users/lcz/exe13/UMP2/BH-1.1-UMP2-O.inp /scratch/BH-1.1-UMP2-O_383
scp $USER@mgt01:/apps/users/lcz/exe13/UMP2/BH-1.1-UHF-O.gbw /scratch/BH-1.1-UMP2-O_383
/apps/software/orca_5_0_0/orca /scratch/BH-1.1-UMP2-O_383/BH-1.1-UMP2-O.inp >& BH-1.1-UMP2-O.out
scp /scratch/BH-1.1-UMP2-O_383/*.gbw $USER@mgt01:/apps/users/lcz/exe13/UMP2
scp /scratch/BH-1.1-UMP2-O_383/*.xyz $USER@mgt01:/apps/users/lcz/exe13/UMP2
scp /scratch/BH-1.1-UMP2-O_383/*.trj $USER@mgt01:/apps/users/lcz/exe13/UMP2> was submitted from host <mgt01> by user <lcz>.
Job was executed on host(s) <8*cnode12>, in queue <cqueue>, as user <lcz>.
</apps/users/lcz> was used as the home directory.
</apps/users/lcz/exe13/UMP2> was used as the working directory.
Started at 2022-05-22 11:53:16
Results reported at 2022-05-22 11:53:21

Your job looked like:

------------------------------------------------------------
# User input
#!/bin/bash
#BSUB -J intel
#BSUB -o BH-1.1-UMP2-O.out
#BSUB -n 8
#BSUB -q cqueue
export LD_LIBRARY_PATH=/apps/software/openmpi-4.1.1/lib:/apps/software/orca_5_0_0:$LD_LIBRARY_PATH
export PATH=/apps/software/openmpi-4.1.1/bin:/apps/software/orca_5_0_0:$PATH
mkdir /scratch/BH-1.1-UMP2-O_383
scp $USER@mgt01:/apps/users/lcz/exe13/UMP2/BH-1.1-UMP2-O.inp /scratch/BH-1.1-UMP2-O_383
scp $USER@mgt01:/apps/users/lcz/exe13/UMP2/BH-1.1-UHF-O.gbw /scratch/BH-1.1-UMP2-O_383
/apps/software/orca_5_0_0/orca /scratch/BH-1.1-UMP2-O_383/BH-1.1-UMP2-O.inp >& BH-1.1-UMP2-O.out
scp /scratch/BH-1.1-UMP2-O_383/*.gbw $USER@mgt01:/apps/users/lcz/exe13/UMP2
scp /scratch/BH-1.1-UMP2-O_383/*.xyz $USER@mgt01:/apps/users/lcz/exe13/UMP2
scp /scratch/BH-1.1-UMP2-O_383/*.trj $USER@mgt01:/apps/users/lcz/exe13/UMP2
------------------------------------------------------------

Exited with exit code 1.

Resource usage summary:

    CPU time   :            0.01 sec.
    Max Memory :                 7 MB
    Max Processes  :               2


The output (if any) follows:

/scratch/BH-1.1-UMP2-O_383/*.xyz: No such file or directory
/scratch/BH-1.1-UMP2-O_383/*.trj: No such file or directory
