 Entering Gaussian System, Link 0=/apps/software/g16/g16
 Initial command:
 /apps/software/g16/l1.exe "/scratch/Gau-341665.inp" -scrdir="/scratch/"
 Entering Link 1 = /apps/software/g16/l1.exe PID=    341666.
  
 Copyright (c) 1988,1990,1992,1993,1995,1998,2003,2009,2016,
            Gaussian, Inc.  All Rights Reserved.
  
 This is part of the Gaussian(R) 16 program.  It is based on
 the Gaussian(R) 09 system (copyright 2009, Gaussian, Inc.),
 the Gaussian(R) 03 system (copyright 2003, Gaussian, Inc.),
 the Gaussian(R) 98 system (copyright 1998, Gaussian, Inc.),
 the Gaussian(R) 94 system (copyright 1995, Gaussian, Inc.),
 the Gaussian 92(TM) system (copyright 1992, Gaussian, Inc.),
 the Gaussian 90(TM) system (copyright 1990, Gaussian, Inc.),
 the Gaussian 88(TM) system (copyright 1988, Gaussian, Inc.),
 the Gaussian 86(TM) system (copyright 1986, Carnegie Mellon
 University), and the Gaussian 82(TM) system (copyright 1983,
 Carnegie Mellon University). Gaussian is a federally registered
 trademark of Gaussian, Inc.
  
 This software contains proprietary and confidential information,
 including trade secrets, belonging to Gaussian, Inc.
  
 This software is provided under written license and may be
 used, copied, transmitted, or stored only in accord with that
 written license.
  
 The following legend is applicable only to US Government
 contracts under FAR:
  
                    RESTRICTED RIGHTS LEGEND
  
 Use, reproduction and disclosure by the US Government is
 subject to restrictions as set forth in subparagraphs (a)
 and (c) of the Commercial Computer Software - Restricted
 Rights clause in FAR 52.227-19.
  
 Gaussian, Inc.
 340 Quinnipiac St., Bldg. 40, Wallingford CT 06492
  
  
 ---------------------------------------------------------------
 Warning -- This program may not be used in any manner that
 competes with the business of Gaussian, Inc. or will provide
 assistance to any competitor of Gaussian, Inc.  The licensee
 of this program is prohibited from giving any competitor of
 Gaussian, Inc. access to this program.  By using this program,
 the user acknowledges that Gaussian, Inc. is engaged in the
 business of creating and licensing software in the field of
 computational chemistry and represents and warrants to the
 licensee that it is not a competitor of Gaussian, Inc. and that
 it will not use this program in any manner prohibited above.
 ---------------------------------------------------------------
  

 Cite this work as:
 Gaussian 16, Revision A.03,
 M. J. Frisch, G. W. Trucks, H. B. Schlegel, G. E. Scuseria, 
 M. A. Robb, J. R. Cheeseman, G. Scalmani, V. Barone, 
 G. A. Petersson, H. Nakatsuji, X. Li, M. Caricato, A. V. Marenich, 
 J. Bloino, B. G. Janesko, R. Gomperts, B. Mennucci, H. P. Hratchian, 
 J. V. Ortiz, A. F. Izmaylov, J. L. Sonnenberg, D. Williams-Young, 
 F. Ding, F. Lipparini, F. Egidi, J. Goings, B. Peng, A. Petrone, 
 T. Henderson, D. Ranasinghe, V. G. Zakrzewski, J. Gao, N. Rega, 
 G. Zheng, W. Liang, M. Hada, M. Ehara, K. Toyota, R. Fukuda, 
 J. Hasegawa, M. Ishida, T. Nakajima, Y. Honda, O. Kitao, H. Nakai, 
 T. Vreven, K. Throssell, J. A. Montgomery, Jr., J. E. Peralta, 
 F. Ogliaro, M. J. Bearpark, J. J. Heyd, E. N. Brothers, K. N. Kudin, 
 V. N. Staroverov, T. A. Keith, R. Kobayashi, J. Normand, 
 K. Raghavachari, A. P. Rendell, J. C. Burant, S. S. Iyengar, 
 J. Tomasi, M. Cossi, J. M. Millam, M. Klene, C. Adamo, R. Cammi, 
 J. W. Ochterski, R. L. Martin, K. Morokuma, O. Farkas, 
 J. B. Foresman, and D. J. Fox, Gaussian, Inc., Wallingford CT, 2016.
 
 ******************************************
 Gaussian 16:  ES64L-G16RevA.03 25-Dec-2016
                22-May-2022 
 ******************************************
 %chk=BH-2.4-UHF-G.chk
 ---------------------------------------
 #p UHF/aug-cc-pVQZ guess=mix stable=opt
 ---------------------------------------
 1/38=1,172=1/1;
 2/12=2,17=6,18=5,40=1/2;
 3/5=16,6=2,7=10,11=2,25=1,30=1,116=2/1,2,3;
 4/13=-1/1;
 5/5=2,38=5/2;
 6/7=2,8=2,9=2,10=2,28=1/1;
 8/6=1,10=90,11=11/1;
 9/8=-3,42=1,46=1/14;
 5/5=2,8=3,17=40,38=5/8(-2);
 6/7=2,8=2,9=2,10=2,28=1/1;
 99/5=1,9=1/99;
 Leave Link    1 at Sun May 22 10:55:02 2022, MaxMem=           0 cpu:               0.0 elap:               0.0
 (Enter /apps/software/g16/l101.exe)
 ----------------------
 BH UHF at 2.4 Angstrom
 ----------------------
 Symbolic Z-matrix:
 Charge =  0 Multiplicity = 1
 B                     0.        0.        0. 
 H                     2.4       0.        0. 
 
 ITRead=  0  0
 MicOpt= -1 -1
 NAtoms=      2 NQM=        2 NQMF=       0 NMMI=      0 NMMIF=      0
                NMic=       0 NMicF=      0.
                    Isotopes and Nuclear Properties:
 (Nuclear quadrupole moments (NQMom) in fm**2, nuclear magnetic moments (NMagM)
  in nuclear magnetons)

  Atom         1           2
 IAtWgt=          11           1
 AtmWgt=  11.0093053   1.0078250
 NucSpn=           3           1
 AtZEff=  -0.0000000  -0.0000000
 NQMom=    4.0590000   0.0000000
 NMagM=    2.6886370   2.7928460
 AtZNuc=   5.0000000   1.0000000
 Leave Link  101 at Sun May 22 10:55:02 2022, MaxMem=   104857600 cpu:               0.1 elap:               0.1
 (Enter /apps/software/g16/l202.exe)
                          Input orientation:                          
 ---------------------------------------------------------------------
 Center     Atomic      Atomic             Coordinates (Angstroms)
 Number     Number       Type             X           Y           Z
 ---------------------------------------------------------------------
      1          5           0        0.000000    0.000000    0.000000
      2          1           0        2.400000    0.000000    0.000000
 ---------------------------------------------------------------------
 Stoichiometry    BH
 Framework group  C*V[C*(HB)]
 Deg. of freedom     1
 Full point group                 C*V     NOp   4
 Largest Abelian subgroup         C2V     NOp   4
 Largest concise Abelian subgroup C1      NOp   1
                         Standard orientation:                         
 ---------------------------------------------------------------------
 Center     Atomic      Atomic             Coordinates (Angstroms)
 Number     Number       Type             X           Y           Z
 ---------------------------------------------------------------------
      1          5           0        0.000000    0.000000    0.400000
      2          1           0        0.000000    0.000000   -2.000000
 ---------------------------------------------------------------------
 Rotational constants (GHZ):           0.0000000          95.0277462          95.0277462
 Leave Link  202 at Sun May 22 10:55:02 2022, MaxMem=   104857600 cpu:               0.0 elap:               0.0
 (Enter /apps/software/g16/l301.exe)
 Standard basis: Aug-CC-pVQZ (5D, 7F)
 Ernie: Thresh=  0.10000D-02 Tol=  0.10000D-05 Strict=F.
 Ernie:  4 primitive shells out of 54 were deleted.
 There are    68 symmetry adapted cartesian basis functions of A1  symmetry.
 There are    18 symmetry adapted cartesian basis functions of A2  symmetry.
 There are    37 symmetry adapted cartesian basis functions of B1  symmetry.
 There are    37 symmetry adapted cartesian basis functions of B2  symmetry.
 There are    50 symmetry adapted basis functions of A1  symmetry.
 There are    16 symmetry adapted basis functions of A2  symmetry.
 There are    30 symmetry adapted basis functions of B1  symmetry.
 There are    30 symmetry adapted basis functions of B2  symmetry.
   126 basis functions,   180 primitive gaussians,   160 cartesian basis functions
     3 alpha electrons        3 beta electrons
       nuclear repulsion energy         1.1024525228 Hartrees.
 IExCor=    0 DFT=F Ex=HF Corr=None ExCW=0 ScaHFX=  1.000000
 ScaDFX=  1.000000  1.000000  1.000000  1.000000 ScalE2=  1.000000  1.000000
 IRadAn=      5 IRanWt=     -1 IRanGd=            0 ICorTp=0 IEmpDi=  4
 NAtoms=    2 NActive=    2 NUniq=    2 SFac= 1.00D+00 NAtFMM=   60 NAOKFM=F Big=F
 Integral buffers will be    131072 words long.
 Raffenetti 2 integral format.
 Two-electron integral symmetry is turned on.
 Leave Link  301 at Sun May 22 10:55:02 2022, MaxMem=   104857600 cpu:               0.1 elap:               0.1
 (Enter /apps/software/g16/l302.exe)
 NPDir=0 NMtPBC=     1 NCelOv=     1 NCel=       1 NClECP=     1 NCelD=      1
         NCelK=      1 NCelE2=     1 NClLst=     1 CellRange=     0.0.
 One-electron integrals computed using PRISM.
 One-electron integral symmetry used in STVInt
 NBasis=   126 RedAO= T EigKep=  9.31D-04  NBF=    50    16    30    30
 NBsUse=   126 1.00D-06 EigRej= -1.00D+00 NBFU=    50    16    30    30
 Leave Link  302 at Sun May 22 10:55:02 2022, MaxMem=   104857600 cpu:               0.1 elap:               0.1
 (Enter /apps/software/g16/l303.exe)
 DipDrv:  MaxL=1.
 Leave Link  303 at Sun May 22 10:55:02 2022, MaxMem=   104857600 cpu:               0.0 elap:               0.0
 (Enter /apps/software/g16/l401.exe)
 ExpMin= 1.88D-02 ExpMax= 2.39D+04 ExpMxC= 2.30D+02 IAcc=3 IRadAn=         5 AccDes= 0.00D+00
 Harris functional with IExCor=  205 and IRadAn=       5 diagonalized for initial guess.
 HarFok:  IExCor=  205 AccDes= 0.00D+00 IRadAn=         5 IDoV= 1 UseB2=F ITyADJ=14
 ICtDFT=  3500011 ScaDFX=  1.000000  1.000000  1.000000  1.000000
 FoFCou: FMM=F IPFlag=           0 FMFlag=      100000 FMFlg1=           0
         NFxFlg=           0 DoJE=T BraDBF=F KetDBF=T FulRan=T
         wScrn=  0.000000 ICntrl=       500 IOpCl=  0 I1Cent=   200000004 NGrid=           0
         NMat0=    1 NMatS0=      1 NMatT0=    0 NMatD0=    1 NMtDS0=    0 NMtDT0=    0
 Petite list used in FoFCou.
 Harris En= -25.0157879491661    
 JPrj=0 DoOrth=F DoCkMO=T.
 Mixing orbitals, IMix= 1 IMixAn=  0 NRI=1 NE=    3 Coef=  7.07106781D-01  7.07106781D-01
 Mixing orbitals, IMix= 1 IMixAn=  0 NRI=1 NE=    3 Coef= -7.07106781D-01  7.07106781D-01
 Initial guess orbital symmetries:
 Alpha Orbitals:
       Occupied  (SG) (SG) (?A)
       Virtual   (?A) (?A) (SG) (SG) (SG) (PI) (PI) (SG) (PI) (PI)
                 (DLTA) (DLTA) (SG) (PI) (PI) (SG) (PI) (PI) (SG)
                 (SG) (PI) (PI) (DLTA) (DLTA) (DLTA) (DLTA) (PHI)
                 (PHI) (SG) (PI) (PI) (SG) (SG) (DLTA) (DLTA) (PI)
                 (PI) (SG) (SG) (PI) (PI) (PI) (PI) (SG) (PI) (PI)
                 (DLTA) (DLTA) (PHI) (PHI) (DLTA) (DLTA) (SG) (?B)
                 (?B) (SG) (PHI) (PHI) (PI) (PI) (DLTA) (DLTA)
                 (SG) (SG) (PHI) (PHI) (PI) (PI) (SG) (DLTA) (DLTA)
                 (SG) (PI) (PI) (DLTA) (DLTA) (PI) (PI) (PI) (PI)
                 (SG) (SG) (PI) (PI) (SG) (DLTA) (DLTA) (PI) (PI)
                 (?B) (?B) (PHI) (PHI) (SG) (DLTA) (DLTA) (PHI)
                 (PHI) (PI) (PI) (DLTA) (DLTA) (PI) (PI) (SG) (SG)
                 (PHI) (PHI) (DLTA) (DLTA) (PI) (PI) (SG) (SG)
                 (PI) (PI) (SG) (DLTA) (DLTA) (PI) (PI) (SG) (SG)
 Beta  Orbitals:
       Occupied  (SG) (SG) (?A)
       Virtual   (?A) (?A) (SG) (SG) (SG) (PI) (PI) (SG) (PI) (PI)
                 (DLTA) (DLTA) (SG) (PI) (PI) (SG) (PI) (PI) (SG)
                 (SG) (PI) (PI) (DLTA) (DLTA) (DLTA) (DLTA) (PHI)
                 (PHI) (SG) (PI) (PI) (SG) (SG) (DLTA) (DLTA) (PI)
                 (PI) (SG) (SG) (PI) (PI) (PI) (PI) (SG) (PI) (PI)
                 (DLTA) (DLTA) (PHI) (PHI) (DLTA) (DLTA) (SG) (?B)
                 (?B) (SG) (PHI) (PHI) (PI) (PI) (DLTA) (DLTA)
                 (SG) (SG) (PHI) (PHI) (PI) (PI) (SG) (DLTA) (DLTA)
                 (SG) (PI) (PI) (DLTA) (DLTA) (PI) (PI) (PI) (PI)
                 (SG) (SG) (PI) (PI) (SG) (DLTA) (DLTA) (PI) (PI)
                 (?B) (?B) (PHI) (PHI) (SG) (DLTA) (DLTA) (PHI)
                 (PHI) (PI) (PI) (DLTA) (DLTA) (PI) (PI) (SG) (SG)
                 (PHI) (PHI) (DLTA) (DLTA) (PI) (PI) (SG) (SG)
                 (PI) (PI) (SG) (DLTA) (DLTA) (PI) (PI) (SG) (SG)
 Initial guess <Sx>= 0.0000 <Sy>= 0.0000 <Sz>= 0.0000 <S**2>= 1.0000 S= 0.6180
 Leave Link  401 at Sun May 22 10:55:02 2022, MaxMem=   104857600 cpu:               0.2 elap:               0.2
 (Enter /apps/software/g16/l502.exe)
 Keep R1 and R2 ints in memory in symmetry-blocked form, NReq=40143665.
 FoFCou: FMM=F IPFlag=           0 FMFlag=           0 FMFlg1=           0
         NFxFlg=           0 DoJE=F BraDBF=F KetDBF=F FulRan=T
         wScrn=  0.000000 ICntrl=       600 IOpCl=  0 I1Cent=           0 NGrid=           0
         NMat0=    1 NMatS0=   8001 NMatT0=    0 NMatD0=    1 NMtDS0=    0 NMtDT0=    0
 Petite list used in FoFCou.
 UHF open shell SCF:
 Using DIIS extrapolation, IDIIS=  1040.
 NGot=   104857600 LenX=    88563632 LenY=    88537591
 Requested convergence on RMS density matrix=1.00D-08 within 128 cycles.
 Requested convergence on MAX density matrix=1.00D-06.
 Requested convergence on             energy=1.00D-06.
 No special actions if energy rises.
 An orbital has undefined symmetry, so N**3 symmetry is turned off.

 Cycle   1  Pass 1  IDiag  1:
 Density matrix breaks symmetry, PCut= 1.00D-07
 Density matrix has no symmetry -- integrals replicated.
 E= -24.9099345570067    
 DIIS: error= 3.54D-02 at cycle   1 NSaved=   1.
 NSaved= 1 IEnMin= 1 EnMin= -24.9099345570067     IErMin= 1 ErrMin= 3.54D-02
 ErrMax= 3.54D-02  0.00D+00 EMaxC= 1.00D-01 BMatC= 1.64D-01 BMatP= 1.64D-01
 IDIUse=3 WtCom= 6.46D-01 WtEn= 3.54D-01
 Coeff-Com:  0.100D+01
 Coeff-En:   0.100D+01
 Coeff:      0.100D+01
 Gap=     0.267 Goal=   None    Shift=    0.000
 Gap=     0.267 Goal=   None    Shift=    0.000
 GapD=    0.267 DampG=1.000 DampE=0.500 DampFc=0.5000 IDamp=-1.
 Damping current iteration by 5.00D-01
 RMSDP=1.23D-03 MaxDP=3.97D-02              OVMax= 2.53D-01

 Cycle   2  Pass 1  IDiag  1:
 Density matrix breaks symmetry, PCut= 1.00D-07
 Density matrix has no symmetry -- integrals replicated.
 E= -24.9375304905696     Delta-E=       -0.027595933563 Rises=F Damp=T
 DIIS: error= 2.02D-02 at cycle   2 NSaved=   2.
 NSaved= 2 IEnMin= 2 EnMin= -24.9375304905696     IErMin= 2 ErrMin= 2.02D-02
 ErrMax= 2.02D-02  0.00D+00 EMaxC= 1.00D-01 BMatC= 5.53D-02 BMatP= 1.64D-01
 IDIUse=3 WtCom= 7.98D-01 WtEn= 2.02D-01
 Coeff-Com: -0.106D+01 0.206D+01
 Coeff-En:   0.000D+00 0.100D+01
 Coeff:     -0.849D+00 0.185D+01
 Gap=     0.284 Goal=   None    Shift=    0.000
 Gap=     0.284 Goal=   None    Shift=    0.000
 RMSDP=1.20D-03 MaxDP=4.21D-02 DE=-2.76D-02 OVMax= 1.10D-01

 Cycle   3  Pass 1  IDiag  1:
 Density matrix breaks symmetry, PCut= 1.00D-07
 Density matrix has no symmetry -- integrals replicated.
 E= -24.9906252441089     Delta-E=       -0.053094753539 Rises=F Damp=F
 DIIS: error= 8.19D-03 at cycle   3 NSaved=   3.
 NSaved= 3 IEnMin= 3 EnMin= -24.9906252441089     IErMin= 3 ErrMin= 8.19D-03
 ErrMax= 8.19D-03  0.00D+00 EMaxC= 1.00D-01 BMatC= 4.24D-03 BMatP= 5.53D-02
 IDIUse=3 WtCom= 9.18D-01 WtEn= 8.19D-02
 Coeff-Com:  0.869D-01-0.241D+00 0.115D+01
 Coeff-En:   0.000D+00 0.000D+00 0.100D+01
 Coeff:      0.797D-01-0.221D+00 0.114D+01
 Gap=     0.308 Goal=   None    Shift=    0.000
 Gap=     0.308 Goal=   None    Shift=    0.000
 RMSDP=4.56D-04 MaxDP=1.11D-02 DE=-5.31D-02 OVMax= 8.98D-02

 Cycle   4  Pass 1  IDiag  1:
 Density matrix breaks symmetry, PCut= 1.00D-07
 Density matrix has no symmetry -- integrals replicated.
 E= -24.9995495472066     Delta-E=       -0.008924303098 Rises=F Damp=F
 DIIS: error= 4.20D-03 at cycle   4 NSaved=   4.
 NSaved= 4 IEnMin= 4 EnMin= -24.9995495472066     IErMin= 4 ErrMin= 4.20D-03
 ErrMax= 4.20D-03  0.00D+00 EMaxC= 1.00D-01 BMatC= 1.49D-03 BMatP= 4.24D-03
 IDIUse=3 WtCom= 9.58D-01 WtEn= 4.20D-02
 Coeff-Com: -0.422D-01 0.905D-01-0.104D+01 0.200D+01
 Coeff-En:   0.000D+00 0.000D+00 0.000D+00 0.100D+01
 Coeff:     -0.404D-01 0.867D-01-0.100D+01 0.195D+01
 Gap=     0.317 Goal=   None    Shift=    0.000
 Gap=     0.317 Goal=   None    Shift=    0.000
 RMSDP=4.55D-04 MaxDP=1.17D-02 DE=-8.92D-03 OVMax= 1.01D-01

 Cycle   5  Pass 1  IDiag  1:
 Density matrix breaks symmetry, PCut= 1.00D-07
 Density matrix has no symmetry -- integrals replicated.
 E= -25.0045669133749     Delta-E=       -0.005017366168 Rises=F Damp=F
 DIIS: error= 3.04D-03 at cycle   5 NSaved=   5.
 NSaved= 5 IEnMin= 5 EnMin= -25.0045669133749     IErMin= 5 ErrMin= 3.04D-03
 ErrMax= 3.04D-03  0.00D+00 EMaxC= 1.00D-01 BMatC= 3.57D-04 BMatP= 1.49D-03
 IDIUse=3 WtCom= 9.70D-01 WtEn= 3.04D-02
 Coeff-Com: -0.132D+00 0.243D+00 0.292D+00-0.991D+00 0.159D+01
 Coeff-En:   0.000D+00 0.000D+00 0.000D+00 0.000D+00 0.100D+01
 Coeff:     -0.128D+00 0.236D+00 0.283D+00-0.961D+00 0.157D+01
 Gap=     0.319 Goal=   None    Shift=    0.000
 Gap=     0.319 Goal=   None    Shift=    0.000
 RMSDP=1.64D-04 MaxDP=3.79D-03 DE=-5.02D-03 OVMax= 3.60D-02

 Cycle   6  Pass 1  IDiag  1:
 Density matrix breaks symmetry, PCut= 1.00D-07
 Density matrix has no symmetry -- integrals replicated.
 E= -25.0054784209333     Delta-E=       -0.000911507558 Rises=F Damp=F
 DIIS: error= 1.53D-03 at cycle   6 NSaved=   6.
 NSaved= 6 IEnMin= 6 EnMin= -25.0054784209333     IErMin= 6 ErrMin= 1.53D-03
 ErrMax= 1.53D-03  0.00D+00 EMaxC= 1.00D-01 BMatC= 1.28D-04 BMatP= 3.57D-04
 IDIUse=3 WtCom= 9.85D-01 WtEn= 1.53D-02
 Coeff-Com:  0.108D+00-0.210D+00 0.259D+00-0.431D+00-0.442D+00 0.172D+01
 Coeff-En:   0.000D+00 0.000D+00 0.000D+00 0.000D+00 0.000D+00 0.100D+01
 Coeff:      0.106D+00-0.207D+00 0.255D+00-0.425D+00-0.435D+00 0.171D+01
 Gap=     0.321 Goal=   None    Shift=    0.000
 Gap=     0.321 Goal=   None    Shift=    0.000
 RMSDP=1.89D-04 MaxDP=5.30D-03 DE=-9.12D-04 OVMax= 4.56D-02

 Cycle   7  Pass 1  IDiag  1:
 Density matrix breaks symmetry, PCut= 1.00D-07
 Density matrix has no symmetry -- integrals replicated.
 E= -25.0059961933871     Delta-E=       -0.000517772454 Rises=F Damp=F
 DIIS: error= 7.31D-04 at cycle   7 NSaved=   7.
 NSaved= 7 IEnMin= 7 EnMin= -25.0059961933871     IErMin= 7 ErrMin= 7.31D-04
 ErrMax= 7.31D-04  0.00D+00 EMaxC= 1.00D-01 BMatC= 3.67D-05 BMatP= 1.28D-04
 IDIUse=3 WtCom= 9.93D-01 WtEn= 7.31D-03
 Coeff-Com:  0.152D-01-0.286D-01-0.163D+00 0.491D+00-0.541D+00-0.893D-01
 Coeff-Com:  0.132D+01
 Coeff-En:   0.000D+00 0.000D+00 0.000D+00 0.000D+00 0.000D+00 0.000D+00
 Coeff-En:   0.100D+01
 Coeff:      0.151D-01-0.284D-01-0.162D+00 0.487D+00-0.537D+00-0.886D-01
 Coeff:      0.131D+01
 Gap=     0.317 Goal=   None    Shift=    0.000
 Gap=     0.317 Goal=   None    Shift=    0.000
 RMSDP=5.61D-05 MaxDP=1.59D-03 DE=-5.18D-04 OVMax= 9.68D-03

 Cycle   8  Pass 1  IDiag  1:
 Density matrix breaks symmetry, PCut= 1.00D-07
 Density matrix has no symmetry -- integrals replicated.
 E= -25.0060810156922     Delta-E=       -0.000084822305 Rises=F Damp=F
 DIIS: error= 5.61D-04 at cycle   8 NSaved=   8.
 NSaved= 8 IEnMin= 8 EnMin= -25.0060810156922     IErMin= 8 ErrMin= 5.61D-04
 ErrMax= 5.61D-04  0.00D+00 EMaxC= 1.00D-01 BMatC= 1.57D-05 BMatP= 3.67D-05
 IDIUse=3 WtCom= 9.94D-01 WtEn= 5.61D-03
 Coeff-Com: -0.486D-02 0.889D-02 0.155D+00-0.467D+00 0.549D+00 0.773D-01
 Coeff-Com: -0.197D+01 0.265D+01
 Coeff-En:   0.000D+00 0.000D+00 0.000D+00 0.000D+00 0.000D+00 0.000D+00
 Coeff-En:   0.000D+00 0.100D+01
 Coeff:     -0.483D-02 0.884D-02 0.154D+00-0.464D+00 0.546D+00 0.769D-01
 Coeff:     -0.196D+01 0.264D+01
 Gap=     0.315 Goal=   None    Shift=    0.000
 Gap=     0.315 Goal=   None    Shift=    0.000
 RMSDP=6.79D-05 MaxDP=2.58D-03 DE=-8.48D-05 OVMax= 8.95D-03

 Cycle   9  Pass 1  IDiag  1:
 Density matrix breaks symmetry, PCut= 1.00D-07
 Density matrix has no symmetry -- integrals replicated.
 E= -25.0061499616715     Delta-E=       -0.000068945979 Rises=F Damp=F
 DIIS: error= 3.96D-04 at cycle   9 NSaved=   9.
 NSaved= 9 IEnMin= 9 EnMin= -25.0061499616715     IErMin= 9 ErrMin= 3.96D-04
 ErrMax= 3.96D-04  0.00D+00 EMaxC= 1.00D-01 BMatC= 8.10D-06 BMatP= 1.57D-05
 IDIUse=3 WtCom= 9.96D-01 WtEn= 3.96D-03
 Coeff-Com:  0.146D-01-0.287D-01-0.128D+00 0.432D+00-0.750D+00 0.322D+00
 Coeff-Com:  0.262D+01-0.546D+01 0.398D+01
 Coeff-En:   0.000D+00 0.000D+00 0.000D+00 0.000D+00 0.000D+00 0.000D+00
 Coeff-En:   0.000D+00 0.000D+00 0.100D+01
 Coeff:      0.145D-01-0.286D-01-0.127D+00 0.430D+00-0.747D+00 0.320D+00
 Coeff:      0.261D+01-0.544D+01 0.397D+01
 Gap=     0.315 Goal=   None    Shift=    0.000
 Gap=     0.315 Goal=   None    Shift=    0.000
 RMSDP=1.08D-04 MaxDP=4.62D-03 DE=-6.89D-05 OVMax= 1.47D-02

 Cycle  10  Pass 1  IDiag  1:
 Density matrix breaks symmetry, PCut= 1.00D-07
 Density matrix has no symmetry -- integrals replicated.
 E= -25.0062111917087     Delta-E=       -0.000061230037 Rises=F Damp=F
 DIIS: error= 1.39D-04 at cycle  10 NSaved=  10.
 NSaved=10 IEnMin=10 EnMin= -25.0062111917087     IErMin=10 ErrMin= 1.39D-04
 ErrMax= 1.39D-04  0.00D+00 EMaxC= 1.00D-01 BMatC= 1.17D-06 BMatP= 8.10D-06
 IDIUse=3 WtCom= 9.99D-01 WtEn= 1.39D-03
 Coeff-Com: -0.148D-03 0.672D-03 0.246D-01-0.886D-01 0.160D+00-0.457D-01
 Coeff-Com: -0.874D+00 0.186D+01-0.185D+01 0.182D+01
 Coeff-En:   0.000D+00 0.000D+00 0.000D+00 0.000D+00 0.000D+00 0.000D+00
 Coeff-En:   0.000D+00 0.000D+00 0.000D+00 0.100D+01
 Coeff:     -0.148D-03 0.671D-03 0.245D-01-0.884D-01 0.160D+00-0.456D-01
 Coeff:     -0.872D+00 0.186D+01-0.185D+01 0.182D+01
 Gap=     0.315 Goal=   None    Shift=    0.000
 Gap=     0.315 Goal=   None    Shift=    0.000
 RMSDP=5.27D-05 MaxDP=2.21D-03 DE=-6.12D-05 OVMax= 7.00D-03

 Cycle  11  Pass 1  IDiag  1:
 Density matrix breaks symmetry, PCut= 1.00D-07
 Density matrix has no symmetry -- integrals replicated.
 E= -25.0062196767309     Delta-E=       -0.000008485022 Rises=F Damp=F
 DIIS: error= 2.03D-05 at cycle  11 NSaved=  11.
 NSaved=11 IEnMin=11 EnMin= -25.0062196767309     IErMin=11 ErrMin= 2.03D-05
 ErrMax= 2.03D-05  0.00D+00 EMaxC= 1.00D-01 BMatC= 2.88D-08 BMatP= 1.17D-06
 IDIUse=1 WtCom= 1.00D+00 WtEn= 0.00D+00
 Coeff-Com:  0.679D-03-0.140D-02-0.537D-02 0.204D-01-0.395D-01 0.190D-01
 Coeff-Com:  0.188D+00-0.426D+00 0.442D+00-0.592D+00 0.139D+01
 Coeff:      0.679D-03-0.140D-02-0.537D-02 0.204D-01-0.395D-01 0.190D-01
 Coeff:      0.188D+00-0.426D+00 0.442D+00-0.592D+00 0.139D+01
 Gap=     0.315 Goal=   None    Shift=    0.000
 Gap=     0.315 Goal=   None    Shift=    0.000
 RMSDP=8.35D-06 MaxDP=3.52D-04 DE=-8.49D-06 OVMax= 1.09D-03

 Cycle  12  Pass 1  IDiag  1:
 Density matrix breaks symmetry, PCut= 1.00D-07
 Density matrix has no symmetry -- integrals replicated.
 E= -25.0062198413357     Delta-E=       -0.000000164605 Rises=F Damp=F
 DIIS: error= 1.51D-06 at cycle  12 NSaved=  12.
 NSaved=12 IEnMin=12 EnMin= -25.0062198413357     IErMin=12 ErrMin= 1.51D-06
 ErrMax= 1.51D-06  0.00D+00 EMaxC= 1.00D-01 BMatC= 3.89D-10 BMatP= 2.88D-08
 IDIUse=1 WtCom= 1.00D+00 WtEn= 0.00D+00
 Coeff-Com: -0.117D-03 0.235D-03 0.800D-03-0.312D-02 0.683D-02-0.418D-02
 Coeff-Com: -0.346D-01 0.830D-01-0.920D-01 0.153D+00-0.449D+00 0.134D+01
 Coeff:     -0.117D-03 0.235D-03 0.800D-03-0.312D-02 0.683D-02-0.418D-02
 Coeff:     -0.346D-01 0.830D-01-0.920D-01 0.153D+00-0.449D+00 0.134D+01
 Gap=     0.315 Goal=   None    Shift=    0.000
 Gap=     0.315 Goal=   None    Shift=    0.000
 RMSDP=2.24D-07 MaxDP=7.00D-06 DE=-1.65D-07 OVMax= 2.37D-05

 Cycle  13  Pass 1  IDiag  1:
 Density matrix breaks symmetry, PCut= 1.00D-07
 Density matrix has no symmetry -- integrals replicated.
 E= -25.0062198418201     Delta-E=       -0.000000000484 Rises=F Damp=F
 DIIS: error= 6.37D-07 at cycle  13 NSaved=  13.
 NSaved=13 IEnMin=13 EnMin= -25.0062198418201     IErMin=13 ErrMin= 6.37D-07
 ErrMax= 6.37D-07  0.00D+00 EMaxC= 1.00D-01 BMatC= 4.08D-11 BMatP= 3.89D-10
 IDIUse=1 WtCom= 1.00D+00 WtEn= 0.00D+00
 Coeff-Com:  0.272D-04-0.522D-04-0.333D-03 0.104D-02-0.176D-02 0.748D-03
 Coeff-Com:  0.861D-02-0.190D-01 0.209D-01-0.437D-01 0.145D+00-0.670D+00
 Coeff-Com:  0.156D+01
 Coeff:      0.272D-04-0.522D-04-0.333D-03 0.104D-02-0.176D-02 0.748D-03
 Coeff:      0.861D-02-0.190D-01 0.209D-01-0.437D-01 0.145D+00-0.670D+00
 Coeff:      0.156D+01
 Gap=     0.315 Goal=   None    Shift=    0.000
 Gap=     0.315 Goal=   None    Shift=    0.000
 RMSDP=7.80D-08 MaxDP=2.27D-06 DE=-4.84D-10 OVMax= 1.22D-05

 Cycle  14  Pass 1  IDiag  1:
 Density matrix breaks symmetry, PCut= 1.00D-07
 Density matrix has no symmetry -- integrals replicated.
 E= -25.0062198418891     Delta-E=       -0.000000000069 Rises=F Damp=F
 DIIS: error= 1.53D-07 at cycle  14 NSaved=  14.
 NSaved=14 IEnMin=14 EnMin= -25.0062198418891     IErMin=14 ErrMin= 1.53D-07
 ErrMax= 1.53D-07  0.00D+00 EMaxC= 1.00D-01 BMatC= 2.97D-12 BMatP= 4.08D-11
 IDIUse=1 WtCom= 1.00D+00 WtEn= 0.00D+00
 Coeff-Com:  0.403D-05-0.895D-05 0.567D-04-0.154D-03 0.105D-03 0.169D-03
 Coeff-Com: -0.125D-02 0.204D-02-0.213D-02 0.666D-02-0.239D-01 0.142D+00
 Coeff-Com: -0.543D+00 0.142D+01
 Coeff:      0.403D-05-0.895D-05 0.567D-04-0.154D-03 0.105D-03 0.169D-03
 Coeff:     -0.125D-02 0.204D-02-0.213D-02 0.666D-02-0.239D-01 0.142D+00
 Coeff:     -0.543D+00 0.142D+01
 Gap=     0.315 Goal=   None    Shift=    0.000
 Gap=     0.315 Goal=   None    Shift=    0.000
 RMSDP=1.75D-08 MaxDP=3.87D-07 DE=-6.90D-11 OVMax= 3.05D-06

 Cycle  15  Pass 1  IDiag  1:
 Density matrix breaks symmetry, PCut= 1.00D-07
 Density matrix has no symmetry -- integrals replicated.
 E= -25.0062198418936     Delta-E=       -0.000000000005 Rises=F Damp=F
 DIIS: error= 3.44D-08 at cycle  15 NSaved=  15.
 NSaved=15 IEnMin=15 EnMin= -25.0062198418936     IErMin=15 ErrMin= 3.44D-08
 ErrMax= 3.44D-08  0.00D+00 EMaxC= 1.00D-01 BMatC= 1.53D-13 BMatP= 2.97D-12
 IDIUse=1 WtCom= 1.00D+00 WtEn= 0.00D+00
 Coeff-Com:  0.341D-06-0.352D-06-0.397D-05 0.536D-05 0.126D-04-0.191D-04
 Coeff-Com: -0.418D-04 0.109D-03-0.905D-04-0.535D-03 0.236D-02-0.223D-01
 Coeff-Com:  0.107D+00-0.393D+00 0.131D+01
 Coeff:      0.341D-06-0.352D-06-0.397D-05 0.536D-05 0.126D-04-0.191D-04
 Coeff:     -0.418D-04 0.109D-03-0.905D-04-0.535D-03 0.236D-02-0.223D-01
 Coeff:      0.107D+00-0.393D+00 0.131D+01
 Gap=     0.315 Goal=   None    Shift=    0.000
 Gap=     0.315 Goal=   None    Shift=    0.000
 RMSDP=1.08D-08 MaxDP=3.89D-07 DE=-4.51D-12 OVMax= 1.53D-06

 Cycle  16  Pass 1  IDiag  1:
 Density matrix breaks symmetry, PCut= 1.00D-07
 Density matrix has no symmetry -- integrals replicated.
 E= -25.0062198418941     Delta-E=       -0.000000000000 Rises=F Damp=F
 DIIS: error= 5.23D-09 at cycle  16 NSaved=  16.
 NSaved=16 IEnMin=16 EnMin= -25.0062198418941     IErMin=16 ErrMin= 5.23D-09
 ErrMax= 5.23D-09  0.00D+00 EMaxC= 1.00D-01 BMatC= 2.83D-15 BMatP= 1.53D-13
 IDIUse=1 WtCom= 1.00D+00 WtEn= 0.00D+00
 Large coefficients: NSaved= 16 BigCof=    0.00 CofMax=   10.00 Det=-3.22D-15
 Inversion failed.  Reducing to 15 matrices.
 Coeff-Com: -0.369D-07 0.152D-05-0.280D-05-0.659D-06 0.365D-05 0.550D-05
 Coeff-Com: -0.121D-04-0.156D-05 0.108D-03-0.423D-03 0.356D-02-0.194D-01
 Coeff-Com:  0.906D-01-0.443D+00 0.137D+01
 Coeff:     -0.369D-07 0.152D-05-0.280D-05-0.659D-06 0.365D-05 0.550D-05
 Coeff:     -0.121D-04-0.156D-05 0.108D-03-0.423D-03 0.356D-02-0.194D-01
 Coeff:      0.906D-01-0.443D+00 0.137D+01
 Gap=     0.315 Goal=   None    Shift=    0.000
 Gap=     0.315 Goal=   None    Shift=    0.000
 RMSDP=2.64D-09 MaxDP=1.10D-07 DE=-4.55D-13 OVMax= 3.40D-07

 Density matrix breaks symmetry, PCut= 1.00D-07
 Density matrix has no symmetry -- integrals replicated.
 SCF Done:  E(UHF) =  -25.0062198419     A.U. after   16 cycles
            NFock= 16  Conv=0.26D-08     -V/T= 2.0098
 <Sx>= 0.0000 <Sy>= 0.0000 <Sz>= 0.0000 <S**2>= 0.2021 S= 0.1724
 <L.S>=  0.00000000000    
 KE= 2.476457020541D+01 PE=-5.959975954167D+01 EE= 8.726516971609D+00
 Annihilation of the first spin contaminant:
 S**2 before annihilation     0.2021,   after     0.0024
 Leave Link  502 at Sun May 22 10:55:06 2022, MaxMem=   104857600 cpu:               3.8 elap:               3.8
 (Enter /apps/software/g16/l601.exe)
 Copying SCF densities to generalized density rwf, IOpCl= 1 IROHF=0.
 SCF density gives NOpUse=  1 NOpAll=  4.
 Marking SCF density as not fully symmetric.

 **********************************************************************

            Population analysis using the SCF density.

 **********************************************************************

 Orbital symmetries:
 Alpha Orbitals:
       Occupied  (SG) (?A) (?A)
       Virtual   (?A) (?A) (?A) (?A) (?A) (?A) (?A) (?A) (?B) (?B)
                 (?B) (?B) (SG) (?C) (?C) (?C) (?C) (?C) (?C) (?C)
                 (?D) (?D) (?D) (?D) (?D) (?D) (?D) (?D) (SG) (PI)
                 (PI) (SG) (SG) (DLTA) (DLTA) (PI) (PI) (?E) (?E)
                 (?E) (?E) (PI) (PI) (SG) (?F) (?F) (?F) (?F) (?G)
                 (?G) (?G) (?G) (?G) (?G) (?G) (?G) (?G) (?G) (?G)
                 (?G) (?G) (?G) (SG) (?H) (?H) (?H) (?H) (SG) (DLTA)
                 (DLTA) (SG) (SG) (PI) (PI) (DLTA) (DLTA) (PI)
                 (PI) (PI) (PI) (SG) (SG) (PI) (PI) (?I) (?I) (?J)
                 (?J) (PHI) (PHI) (?J) (?J) (?J) (?K) (?K) (?K)
                 (?L) (?L) (?L) (?L) (?L) (?L) (PI) (PI) (SG) (SG)
                 (PHI) (PHI) (DLTA) (DLTA) (PI) (PI) (SG) (SG)
                 (PI) (PI) (DLTA) (DLTA) (SG) (PI) (PI) (SG) (SG)
 Beta  Orbitals:
       Occupied  (SG) (?A) (?A)
       Virtual   (?A) (?A) (?A) (?A) (?A) (?A) (?A) (?A) (?B) (?B)
                 (?B) (?B) (SG) (?C) (?C) (?C) (?C) (?C) (?C) (?C)
                 (?D) (?D) (?D) (?D) (?D) (?D) (?D) (?D) (SG) (PI)
                 (PI) (SG) (SG) (DLTA) (DLTA) (PI) (PI) (?E) (?E)
                 (?E) (?E) (PI) (PI) (SG) (?F) (?F) (?F) (?F) (?G)
                 (?G) (?G) (?G) (?G) (?G) (?G) (?G) (?G) (?G) (?G)
                 (?G) (?G) (?G) (SG) (?H) (?H) (?H) (?H) (SG) (DLTA)
                 (DLTA) (SG) (SG) (PI) (PI) (DLTA) (DLTA) (PI)
                 (PI) (PI) (PI) (SG) (SG) (PI) (PI) (?I) (?I) (?J)
                 (?J) (PHI) (PHI) (?J) (?J) (?J) (?K) (?K) (?K)
                 (?L) (?L) (?L) (?L) (?L) (?L) (PI) (PI) (SG) (SG)
                 (PHI) (PHI) (DLTA) (DLTA) (PI) (PI) (SG) (SG)
                 (PI) (PI) (DLTA) (DLTA) (SG) (PI) (PI) (SG) (SG)
 Unable to determine electronic state:  an orbital has unidentified symmetry.
 Alpha  occ. eigenvalues --   -7.80997  -0.56776  -0.31335
 Alpha virt. eigenvalues --    0.00117   0.00298   0.01851   0.04912   0.05966
 Alpha virt. eigenvalues --    0.06202   0.07063   0.08875   0.13826   0.13835
 Alpha virt. eigenvalues --    0.13993   0.14042   0.18004   0.26009   0.26547
 Alpha virt. eigenvalues --    0.26808   0.29320   0.29392   0.31252   0.35389
 Alpha virt. eigenvalues --    0.44752   0.44752   0.45394   0.45394   0.46940
 Alpha virt. eigenvalues --    0.47035   0.47628   0.47661   0.49255   0.52990
 Alpha virt. eigenvalues --    0.53100   0.57937   0.62840   0.73971   0.73971
 Alpha virt. eigenvalues --    0.85703   0.85723   0.89860   0.91348   0.91433
 Alpha virt. eigenvalues --    0.91567   1.03115   1.03215   1.27945   1.33654
 Alpha virt. eigenvalues --    1.33654   1.34215   1.34215   1.35474   1.35577
 Alpha virt. eigenvalues --    1.36073   1.36115   1.36699   1.36734   1.39037
 Alpha virt. eigenvalues --    1.40253   1.40253   1.41660   1.42728   1.42948
 Alpha virt. eigenvalues --    1.43505   1.43561   1.56643   1.65480   1.65676
 Alpha virt. eigenvalues --    1.66032   1.66032   1.68933   1.90203   1.90204
 Alpha virt. eigenvalues --    1.93516   2.11039   2.14457   2.14553   2.57277
 Alpha virt. eigenvalues --    2.57277   2.69235   2.69258   2.83461   2.83499
 Alpha virt. eigenvalues --    2.89177   3.20005   3.68077   3.68359   3.86492
 Alpha virt. eigenvalues --    3.86492   3.87943   3.87945   3.88507   3.88507
 Alpha virt. eigenvalues --    3.90174   3.90831   3.91159   3.95063   3.95110
 Alpha virt. eigenvalues --    3.95813   4.02041   4.02041   4.03652   4.03976
 Alpha virt. eigenvalues --    4.04776   4.04825   4.19911   4.20222   4.30525
 Alpha virt. eigenvalues --    4.46538   6.64309   6.64309   6.70815   6.70815
 Alpha virt. eigenvalues --    6.81325   6.81334   6.82256   7.69835   8.13653
 Alpha virt. eigenvalues --    8.13660   8.50213   8.50213   8.51924   8.58580
 Alpha virt. eigenvalues --    8.58586   8.84152  13.25374
  Beta  occ. eigenvalues --   -7.80997  -0.56776  -0.31335
  Beta virt. eigenvalues --    0.00117   0.00298   0.01851   0.04912   0.05966
  Beta virt. eigenvalues --    0.06202   0.07063   0.08875   0.13826   0.13835
  Beta virt. eigenvalues --    0.13993   0.14042   0.18004   0.26009   0.26547
  Beta virt. eigenvalues --    0.26808   0.29320   0.29392   0.31252   0.35389
  Beta virt. eigenvalues --    0.44752   0.44752   0.45394   0.45394   0.46940
  Beta virt. eigenvalues --    0.47035   0.47628   0.47661   0.49255   0.52990
  Beta virt. eigenvalues --    0.53100   0.57937   0.62840   0.73971   0.73971
  Beta virt. eigenvalues --    0.85703   0.85723   0.89860   0.91348   0.91433
  Beta virt. eigenvalues --    0.91567   1.03115   1.03215   1.27945   1.33654
  Beta virt. eigenvalues --    1.33654   1.34215   1.34215   1.35474   1.35577
  Beta virt. eigenvalues --    1.36073   1.36115   1.36699   1.36734   1.39037
  Beta virt. eigenvalues --    1.40253   1.40253   1.41660   1.42728   1.42948
  Beta virt. eigenvalues --    1.43505   1.43561   1.56643   1.65480   1.65676
  Beta virt. eigenvalues --    1.66032   1.66032   1.68933   1.90203   1.90204
  Beta virt. eigenvalues --    1.93516   2.11039   2.14457   2.14553   2.57277
  Beta virt. eigenvalues --    2.57277   2.69235   2.69258   2.83461   2.83499
  Beta virt. eigenvalues --    2.89177   3.20005   3.68077   3.68359   3.86492
  Beta virt. eigenvalues --    3.86492   3.87943   3.87945   3.88507   3.88507
  Beta virt. eigenvalues --    3.90174   3.90831   3.91159   3.95063   3.95110
  Beta virt. eigenvalues --    3.95813   4.02041   4.02041   4.03652   4.03976
  Beta virt. eigenvalues --    4.04776   4.04825   4.19911   4.20222   4.30525
  Beta virt. eigenvalues --    4.46538   6.64309   6.64309   6.70815   6.70815
  Beta virt. eigenvalues --    6.81325   6.81334   6.82256   7.69835   8.13653
  Beta virt. eigenvalues --    8.13660   8.50213   8.50213   8.51924   8.58580
  Beta virt. eigenvalues --    8.58586   8.84152  13.25374
          Condensed to atoms (all electrons):
               1          2
     1  B    4.524304   0.269904
     2  H    0.269904   0.935887
          Atomic-Atomic Spin Densities.
               1          2
     1  B    0.000000   0.000000
     2  H    0.000000   0.000000
 Mulliken charges and spin densities:
               1          2
     1  B    0.205792   0.000000
     2  H   -0.205792   0.000000
 Sum of Mulliken charges =  -0.00000   0.00000
 Mulliken charges and spin densities with hydrogens summed into heavy atoms:
               1          2
     1  B   -0.000000   0.000000
 Electronic spatial extent (au):  <R**2>=             39.7952
 Charge=             -0.0000 electrons
 Dipole moment (field-independent basis, Debye):
    X=              0.0000    Y=              0.0000    Z=              2.9399  Tot=              2.9399
 Quadrupole moment (field-independent basis, Debye-Ang):
   XX=             -7.8969   YY=             -8.2482   ZZ=            -14.3254
   XY=              0.0000   XZ=              0.0000   YZ=              0.0000
 Traceless Quadrupole moment (field-independent basis, Debye-Ang):
   XX=              2.2599   YY=              1.9087   ZZ=             -4.1686
   XY=              0.0000   XZ=              0.0000   YZ=              0.0000
 Octapole moment (field-independent basis, Debye-Ang**2):
  XXX=              0.0000  YYY=              0.0000  ZZZ=             11.7402  XYY=              0.0000
  XXY=              0.0000  XXZ=              3.0981  XZZ=              0.0000  YZZ=              0.0000
  YYZ=              2.8940  XYZ=             -0.0000
 Hexadecapole moment (field-independent basis, Debye-Ang**3):
 XXXX=            -12.8120 YYYY=            -13.7438 ZZZZ=            -89.2619 XXXY=              0.0000
 XXXZ=              0.0000 YYYX=              0.0000 YYYZ=              0.0000 ZZZX=              0.0000
 ZZZY=              0.0000 XXYY=             -4.4260 XXZZ=            -16.2236 YYZZ=            -16.4878
 XXYZ=              0.0000 YYXZ=              0.0000 ZZXY=              0.0000
 N-N= 1.102452522750D+00 E-N=-5.959975946032D+01  KE= 2.476457020541D+01
 Symmetry A1   KE= 2.467509545227D+01
 Symmetry A2   KE= 1.915022640468D-29
 Symmetry B1   KE= 1.471692021763D-29
 Symmetry B2   KE= 8.947475314449D-02
 Symmetry A1   SP= 0.000000000000D+00
 Symmetry A2   SP= 0.000000000000D+00
 Symmetry B1   SP= 0.000000000000D+00
 Symmetry B2   SP= 0.000000000000D+00
                          Isotropic Fermi Contact Couplings
        Atom                 a.u.       MegaHertz       Gauss      10(-4) cm-1
     1  B(11)              0.00000       0.00000       0.00000       0.00000
     2  H(1)               0.00000       0.00000       0.00000       0.00000
 --------------------------------------------------------
       Center         ----  Spin Dipole Couplings  ----
                      3XX-RR        3YY-RR        3ZZ-RR
 --------------------------------------------------------
     1   Atom        0.000000      0.000000      0.000000
     2   Atom        0.000000      0.000000      0.000000
 --------------------------------------------------------
                        XY            XZ            YZ
 --------------------------------------------------------
     1   Atom        0.000000     -0.000000     -0.182279
     2   Atom        0.000000      0.000000      0.001695
 --------------------------------------------------------


 ---------------------------------------------------------------------------------
              Anisotropic Spin Dipole Couplings in Principal Axis System
 ---------------------------------------------------------------------------------

       Atom             a.u.   MegaHertz   Gauss  10(-4) cm-1        Axes

              Baa    -0.1823   -31.209   -11.136   -10.410  0.0000  0.7071  0.7071
     1 B(11)  Bbb     0.0000     0.000     0.000     0.000  1.0000 -0.0000  0.0000
              Bcc     0.1823    31.209    11.136    10.410  0.0000  0.7071 -0.7071
 
              Baa    -0.0017    -0.905    -0.323    -0.302  0.0000  0.7071 -0.7071
     2 H(1)   Bbb     0.0000     0.000     0.000     0.000  1.0000 -0.0000  0.0000
              Bcc     0.0017     0.905     0.323     0.302  0.0000  0.7071  0.7071
 

 ---------------------------------------------------------------------------------

 No NMR shielding tensors so no spin-rotation constants.
 Leave Link  601 at Sun May 22 10:55:06 2022, MaxMem=   104857600 cpu:               0.2 elap:               0.2
 (Enter /apps/software/g16/l801.exe)
 Range of M.O.s used for correlation:     1   126
 NBasis=   126 NAE=     3 NBE=     3 NFC=     0 NFV=     0
 NROrb=    126 NOA=     3 NOB=     3 NVA=   123 NVB=   123
 Leave Link  801 at Sun May 22 10:55:06 2022, MaxMem=   104857600 cpu:               0.0 elap:               0.0
 (Enter /apps/software/g16/l914.exe)
 UHF ground state
 Doing stability rather than CIS.
 Keep R1 and R2 ints in memory in symmetry-blocked form, NReq=40144005.
 FoFCou: FMM=F IPFlag=           0 FMFlag=           0 FMFlg1=           0
         NFxFlg=           0 DoJE=F BraDBF=F KetDBF=F FulRan=T
         wScrn=  0.000000 ICntrl=       600 IOpCl=  0 I1Cent=           0 NGrid=           0
         NMat0=    1 NMatS0=   8001 NMatT0=    0 NMatD0=    1 NMtDS0=    0 NMtDT0=    0
 Petite list used in FoFCou.
 MDV=   104857600 DFT=F DoStab=T Mixed=F DoRPA=F DoScal=F NonHer=F
 Making orbital integer symmetry assigments:
 Orbital symmetries:
 Alpha Orbitals:
       Occupied  (SG) (?A) (?A)
       Virtual   (?A) (?A) (?A) (?A) (?A) (?A) (?A) (?A) (?B) (?B)
                 (?B) (?B) (SG) (?C) (?C) (?C) (?C) (?C) (?C) (?C)
                 (?D) (?D) (?D) (?D) (?D) (?D) (?D) (?D) (SG) (PI)
                 (PI) (SG) (SG) (DLTA) (DLTA) (PI) (PI) (?E) (?E)
                 (?E) (?E) (PI) (PI) (SG) (?F) (?F) (?F) (?F) (?G)
                 (?G) (?G) (?G) (?G) (?G) (?G) (?G) (?G) (?G) (?G)
                 (?G) (?G) (?G) (SG) (?H) (?H) (?H) (?H) (SG) (DLTA)
                 (DLTA) (SG) (SG) (PI) (PI) (DLTA) (DLTA) (PI)
                 (PI) (PI) (PI) (SG) (SG) (PI) (PI) (?I) (?I) (?J)
                 (?J) (PHI) (PHI) (?J) (?J) (?J) (?K) (?K) (?K)
                 (?L) (?L) (?L) (?L) (?L) (?L) (PI) (PI) (SG) (SG)
                 (PHI) (PHI) (DLTA) (DLTA) (PI) (PI) (SG) (SG)
                 (PI) (PI) (DLTA) (DLTA) (SG) (PI) (PI) (SG) (SG)
 Beta  Orbitals:
       Occupied  (SG) (?A) (?A)
       Virtual   (?A) (?A) (?A) (?A) (?A) (?A) (?A) (?A) (?B) (?B)
                 (?B) (?B) (SG) (?C) (?C) (?C) (?C) (?C) (?C) (?C)
                 (?D) (?D) (?D) (?D) (?D) (?D) (?D) (?D) (SG) (PI)
                 (PI) (SG) (SG) (DLTA) (DLTA) (PI) (PI) (?E) (?E)
                 (?E) (?E) (PI) (PI) (SG) (?F) (?F) (?F) (?F) (?G)
                 (?G) (?G) (?G) (?G) (?G) (?G) (?G) (?G) (?G) (?G)
                 (?G) (?G) (?G) (SG) (?H) (?H) (?H) (?H) (SG) (DLTA)
                 (DLTA) (SG) (SG) (PI) (PI) (DLTA) (DLTA) (PI)
                 (PI) (PI) (PI) (SG) (SG) (PI) (PI) (?I) (?I) (?J)
                 (?J) (PHI) (PHI) (?J) (?J) (?J) (?K) (?K) (?K)
                 (?L) (?L) (?L) (?L) (?L) (?L) (PI) (PI) (SG) (SG)
                 (PHI) (PHI) (DLTA) (DLTA) (PI) (PI) (SG) (SG)
                 (PI) (PI) (DLTA) (DLTA) (SG) (PI) (PI) (SG) (SG)
    12 initial guesses have been made.
 Convergence on wavefunction:    0.001000000000000
 Davidson Disk Diagonalization:  ConvIn= 1.00D-03 SkipCon=T Conv= 1.00D-03.
 Max sub-space:  1476 roots to seek:    12 dimension of matrix:          738
 Iteration     1 Dimension    12 NMult     0 NNew     12
 CISAX will form    12 AO SS matrices at one time.
 NMat=    12 NSing=    12 JSym2X= 2.
 New state      1 was old state      6
 Excitation Energies [eV] at current iteration:
 Root      1 :    -1.705304709465219
 Root      2 :     0.454487259460675
 Root      3 :     1.375006175476258
 Root      4 :     2.970668599043785
 Root      5 :     3.006763721515131
 Root      6 :     3.322068966944195
 Root      7 :     3.708390980879033
 Root      8 :     6.085253288065815
 Root      9 :     6.093318130110570
 Root     10 :    10.351100217727625
 Root     11 :    11.418872674038331
 Root     12 :    11.743933800322115
 Iteration     2 Dimension    24 NMult    12 NNew     12
 CISAX will form    12 AO SS matrices at one time.
 NMat=    12 NSing=    12 JSym2X= 2.
 Root      1 not converged, maximum delta is    0.075112052486306
 Excitation Energies [eV] at current iteration:
 Root      1 :    -3.106629964400490   Change is   -1.401325254935270
 Root      2 :     0.011440192368242   Change is   -0.443047067092433
 Root      3 :     0.866050192020111   Change is   -0.508955983456147
 Root      4 :     2.245821805988709   Change is   -0.760941915526422
 Root      5 :     2.332289572756661   Change is   -0.638379026287124
 Root      6 :     2.555508077639099   Change is   -0.766560889305096
 Root      7 :     2.957340095980072   Change is   -0.751050884898961
 Root      8 :     5.673649937426195   Change is   -0.411603350639620
 Root      9 :     5.705958342108048   Change is   -0.387359788002522
 Root     10 :     7.462907374318071   Change is   -2.888192843409554
 Root     11 :     8.167661305761355   Change is   -3.576272494560759
 Root     12 :     8.348236080224432   Change is   -3.070636593813899
 Iteration     3 Dimension    27 NMult    24 NNew      3
 CISAX will form     3 AO SS matrices at one time.
 NMat=     3 NSing=     3 JSym2X= 2.
 Root      1 not converged, maximum delta is    0.017229573514037
 Excitation Energies [eV] at current iteration:
 Root      1 :    -3.162442121981742   Change is   -0.055812157581253
 Root      2 :     0.000448534145067   Change is   -0.010991658223175
 Root      3 :     0.847625934301711   Change is   -0.018424257718400
 Iteration     4 Dimension    30 NMult    27 NNew      3
 CISAX will form     3 AO SS matrices at one time.
 NMat=     3 NSing=     3 JSym2X= 2.
 Root      1 not converged, maximum delta is    0.004491651631382
 Excitation Energies [eV] at current iteration:
 Root      1 :    -3.166291039177170   Change is   -0.003848917195428
 Root      2 :     0.000026396630966   Change is   -0.000422137514101
 Root      3 :     0.846437264505722   Change is   -0.001188669795989
 Cease iterating as an instability has been found.
 ***********************************************************************
 Stability analysis using <AA,BB:AA,BB> singles matrix:
 ***********************************************************************
 1PDM for each excited state written to RWF  633
 Ground to excited state transition densities written to RWF  633

 Eigenvectors of the stability matrix:
 
 Excited state symmetry could not be determined.
 Eigenvector   1:  2.987-?Sym  Eigenvalue=-0.1163591  <S**2>=1.980
      3A ->  5A        0.24534
      3A ->  6A       -0.37141
      3A ->  7A        0.35045
      3A -> 10A        0.33260
      3A -> 16A        0.17584
      3B ->  5B        0.24534
      3B ->  6B        0.37141
      3B ->  7B       -0.35045
      3B -> 10B       -0.33260
      3B -> 16B       -0.17584
 
 Excited state symmetry could not be determined.
 Eigenvector   2:  2.931-?Sym  Eigenvalue= 0.0000010  <S**2>=1.897
      2A ->  4A        0.37511
      2A ->  8A       -0.22265
      2A -> 18A       -0.12436
      2A -> 21A       -0.11949
      3A ->  4A       -0.45898
      3A ->  8A        0.22346
      2B ->  4B       -0.37511
      2B ->  8B        0.22265
      2B -> 18B        0.12436
      2B -> 21B        0.11949
      3B ->  4B        0.45898
      3B ->  8B       -0.22346
 
 Excited state symmetry could not be determined.
 Eigenvector   3:  2.721-?Sym  Eigenvalue= 0.0311060  <S**2>=1.601
      2A ->  5A       -0.33469
      2A ->  9A        0.18350
      3A ->  5A        0.47950
      3A ->  9A       -0.23066
      3A -> 10A       -0.10257
      2B ->  5B        0.33469
      2B ->  9B       -0.18350
      3B ->  5B       -0.47950
      3B ->  9B        0.23066
      3B -> 10B       -0.10257
 The wavefunction has an internal instability.
 Leave Link  914 at Sun May 22 10:55:10 2022, MaxMem=   104857600 cpu:               4.0 elap:               4.0
 (Enter /apps/software/g16/l508.exe)
 Keep R1 and R2 ints in memory in symmetry-blocked form, NReq=40144065.
 FoFCou: FMM=F IPFlag=           0 FMFlag=           0 FMFlg1=           0
         NFxFlg=           0 DoJE=F BraDBF=F KetDBF=F FulRan=T
         wScrn=  0.000000 ICntrl=       600 IOpCl=  0 I1Cent=           0 NGrid=           0
         NMat0=    1 NMatS0=   8001 NMatT0=    0 NMatD0=    1 NMtDS0=    0 NMtDT0=    0
 Petite list used in FoFCou.
 Tight linear equation convergence will be used.
 UHF wavefunction.
 Quadratic Convergence SCF Method.
 Line search only if initial step raises energy.
 Perform preliminary linear searches along instability eigenvector.
     ILin= 1 X=0.000D+00 Y=-2.500621984189D+01 DE= 0.00D+00
     ILin= 2 X=1.000D-01 Y=-2.500736744970D+01 DE=-1.15D-03
     ILin= 3 X=1.414D-01 Y=-2.500848329912D+01 DE=-2.26D-03
     ILin= 4 X=2.000D-01 Y=-2.501062085144D+01 DE=-4.40D-03
     ILin= 5 X=2.828D-01 Y=-2.501452717065D+01 DE=-8.31D-03
     ILin= 6 X=4.000D-01 Y=-2.502092574399D+01 DE=-1.47D-02
     ILin= 7 X=5.657D-01 Y=-2.502853418175D+01 DE=-2.23D-02
     ILin= 8 X=8.000D-01 Y=-2.502641726785D+01 DE=-2.02D-02
     An  expanding polynomial of degree  8 produced  0.6658
 Iteration F X= 6.658D-01 EE=-2.503019662789311D+01
     ILin= 1 X=0.000D+00 Y=-2.500621984189D+01 DE= 0.00D+00
     ILin= 2 X=1.000D-01 Y=-2.500736744737D+01 DE=-1.15D-03
     ILin= 3 X=1.414D-01 Y=-2.500848329254D+01 DE=-2.26D-03
 The two search directions are symmetric.
 Iteration B X= 6.658D-01 EE=-2.503019662789311D+01
 Take forward step, X= 6.658D-01 Step= 6.658D-01
 Iteration   1 EE= -25.0301970918612                                    Grad=5.916D-02 Max rot=    0.9166 deg.
 Gradient too large for Newton-Raphson -- use scaled steepest descent instead.
 Alpha Gap=     0.440 HL deriv= 3.66D-17
  Beta Gap=     0.330 HL deriv= 1.99D-16
     ILin= 1 X=0.000D+00 Y=-2.503019709186D+01 DE= 0.00D+00 F= -8.17D-03
     ILin= 2 X=3.000D-01 Y=-2.503243017845D+01 DE=-2.23D-03 F= -6.71D-03
     ILin= 3 X=6.000D-01 Y=-2.503422066933D+01 DE=-4.02D-03 F= -5.22D-03
     ILin= 4 X=1.100D+00 Y=-2.503620414634D+01 DE=-6.01D-03 F= -2.70D-03
     ILin= 5 X=2.000D+00 Y=-2.503655277822D+01 DE=-6.36D-03 F=  1.95D-03
     Accept linear search using points  4 and  5.
     An  expanding polynomial of degree  5 produced  1.6149
 Iteration   2 EE= -25.0369162206138     Delta-E=       -0.006719128753 Grad=2.337D-02 Max rot=    0.3329 deg.
 Gradient too large for Newton-Raphson -- use scaled steepest descent instead.
 Alpha Gap=     0.458 HL deriv= 5.18D-17
  Beta Gap=     0.340 HL deriv= 2.55D-16
     ILin= 1 X=0.000D+00 Y=-2.503691622061D+01 DE= 0.00D+00 F= -1.39D-03
     ILin= 2 X=7.000D-01 Y=-2.503772355909D+01 DE=-8.07D-04 F= -9.13D-04
     ILin= 3 X=1.400D+00 Y=-2.503819014987D+01 DE=-1.27D-03 F= -4.17D-04
     ILin= 4 X=2.800D+00 Y=-2.503804660117D+01 DE=-1.13D-03 F=  6.34D-04
     An  expanding polynomial of degree  4 produced  1.9673
 Iteration   3 EE= -25.0383087982961     Delta-E=       -0.001392577682 Grad=1.765D-02 Max rot=    0.3507 deg.
 Gradient too large for Newton-Raphson -- use scaled steepest descent instead.
 Alpha Gap=     0.470 HL deriv= 2.69D-17
  Beta Gap=     0.347 HL deriv= 2.64D-16
     ILin= 1 X=0.000D+00 Y=-2.503830879830D+01 DE= 0.00D+00 F= -5.31D-04
     ILin= 2 X=1.800D+00 Y=-2.503873010565D+01 DE=-4.21D-04 F=  6.44D-05
     ILin= 3 X=3.600D+00 Y=-2.503807313860D+01 DE= 2.36D-04 F=  6.66D-04
     An  expanding polynomial of degree  3 produced  1.6033
 Iteration   4 EE= -25.0387363403231     Delta-E=       -0.000427542027 Grad=9.018D-03 Max rot=    0.1259 deg.
 QCNR:  CnvC1=2.72D-09 CnvC2=2.72D-08
 LinEq1:  Iter=  0 NonCon=     1 RMS=3.91D-04 Max=3.66D-03 NDo=     1
 AX will form     1 AO Fock derivatives at one time.
 LinEq1:  Iter=  1 NonCon=     1 RMS=1.13D-04 Max=8.14D-04 NDo=     1
 LinEq1:  Iter=  2 NonCon=     1 RMS=2.75D-05 Max=2.83D-04 NDo=     1
 LinEq1:  Iter=  3 NonCon=     1 RMS=4.80D-06 Max=4.23D-05 NDo=     1
 LinEq1:  Iter=  4 NonCon=     1 RMS=1.29D-06 Max=1.69D-05 NDo=     1
 LinEq1:  Iter=  5 NonCon=     1 RMS=3.06D-07 Max=3.06D-06 NDo=     1
 LinEq1:  Iter=  6 NonCon=     1 RMS=3.90D-08 Max=2.66D-07 NDo=     1
 LinEq1:  Iter=  7 NonCon=     1 RMS=6.11D-09 Max=3.81D-08 NDo=     1
 LinEq1:  Iter=  8 NonCon=     0 RMS=1.03D-09 Max=7.94D-09 NDo=     1
 Linear equations converged to 2.717D-09 2.717D-08 after     8 iterations.
 Angle between quadratic step and gradient=  67.00 degrees.
     ILin= 1 X=0.000D+00 Y=-2.503873634032D+01 DE= 0.00D+00 F= -1.35D-03
     ILin= 2 X=1.000D+00 Y=-2.503947936274D+01 DE=-7.43D-04 F= -1.40D-04
     Reject lnstep minimum 1.117D+00 FVal=-2.503948755373D+01 Lims=  0.00D+00  1.00D+00
     ILin= 3 X=1.600D+00 Y=-2.503929174313D+01 DE=-5.55D-04 F=  8.34D-04
     An  expanding polynomial of degree  3 produced  1.0630
     Minimum is close to point  2 DX=  6.30D-02 DF= -2.62D-06 DXR=  5.93D-02 DFR=  3.53D-03 which will be used.
 Iteration   5 EE= -25.0394793627407     Delta-E=       -0.000743022418 Grad=4.618D-03 Max rot=    0.0654 deg.
 QCNR:  CnvC1=2.72D-09 CnvC2=2.72D-08
 LinEq1:  Iter=  0 NonCon=     1 RMS=1.85D-04 Max=2.05D-03 NDo=     1
 LinEq1:  Iter=  1 NonCon=     1 RMS=4.34D-05 Max=4.18D-04 NDo=     1
 LinEq1:  Iter=  2 NonCon=     1 RMS=1.10D-05 Max=7.61D-05 NDo=     1
 LinEq1:  Iter=  3 NonCon=     1 RMS=2.91D-06 Max=3.29D-05 NDo=     1
 LinEq1:  Iter=  4 NonCon=     1 RMS=5.84D-07 Max=5.00D-06 NDo=     1
 LinEq1:  Iter=  5 NonCon=     1 RMS=1.57D-07 Max=2.41D-06 NDo=     1
 LinEq1:  Iter=  6 NonCon=     1 RMS=3.85D-08 Max=2.41D-07 NDo=     1
 LinEq1:  Iter=  7 NonCon=     1 RMS=6.64D-09 Max=6.46D-08 NDo=     1
 LinEq1:  Iter=  8 NonCon=     0 RMS=1.32D-09 Max=1.23D-08 NDo=     1
 Linear equations converged to 2.717D-09 2.717D-08 after     8 iterations.
 Angle between quadratic step and gradient=  72.11 degrees.
     ILin= 1 X=0.000D+00 Y=-2.503947936274D+01 DE= 0.00D+00 F= -2.42D-04
     ILin= 2 X=1.000D+00 Y=-2.503961929467D+01 DE=-1.40D-04 F= -5.51D-05
     Reject lnstep minimum 1.469D+00 FVal=-2.503963151230D+01 Lims=  0.00D+00  1.00D+00
     ILin= 3 X=1.800D+00 Y=-2.503962206047D+01 DE=-1.43D-04 F=  4.50D-05
     Accept linear search using points  2 and  3.
     An  expanding polynomial of degree  3 produced  1.4129
 Iteration   6 EE= -25.0396306274754     Delta-E=       -0.000151264735 Grad=2.421D-03 Max rot=    0.0418 deg.
 QCNR:  CnvC1=2.72D-09 CnvC2=2.72D-08
 LinEq1:  Iter=  0 NonCon=     1 RMS=4.53D-05 Max=4.09D-04 NDo=     1
 LinEq1:  Iter=  1 NonCon=     1 RMS=1.36D-05 Max=1.37D-04 NDo=     1
 LinEq1:  Iter=  2 NonCon=     1 RMS=3.85D-06 Max=3.84D-05 NDo=     1
 LinEq1:  Iter=  3 NonCon=     1 RMS=9.52D-07 Max=7.35D-06 NDo=     1
 LinEq1:  Iter=  4 NonCon=     1 RMS=1.83D-07 Max=1.64D-06 NDo=     1
 LinEq1:  Iter=  5 NonCon=     1 RMS=3.92D-08 Max=3.70D-07 NDo=     1
 LinEq1:  Iter=  6 NonCon=     1 RMS=1.40D-08 Max=1.42D-07 NDo=     1
 LinEq1:  Iter=  7 NonCon=     0 RMS=2.42D-09 Max=2.32D-08 NDo=     1
 Linear equations converged to 2.717D-09 2.717D-08 after     7 iterations.
 Angle between quadratic step and gradient=  82.50 degrees.
     ILin= 1 X=0.000D+00 Y=-2.503963062748D+01 DE= 0.00D+00 F= -1.06D-05
     ILin= 2 X=1.000D+00 Y=-2.503963535201D+01 DE=-4.72D-06 F=  1.17D-06
     Accept linear search using points  1 and  2.
     An  expanding polynomial of degree  2 produced  0.9010
 Iteration   7 EE= -25.0396354098226     Delta-E=       -0.000004782347 Grad=1.768D-03 Max rot=    0.0403 deg.
 QCNR:  CnvC1=2.72D-09 CnvC2=2.72D-08
 LinEq1:  Iter=  0 NonCon=     1 RMS=1.78D-05 Max=1.67D-04 NDo=     1
 LinEq1:  Iter=  1 NonCon=     1 RMS=5.01D-06 Max=6.23D-05 NDo=     1
 LinEq1:  Iter=  2 NonCon=     1 RMS=1.10D-06 Max=8.54D-06 NDo=     1
 LinEq1:  Iter=  3 NonCon=     1 RMS=3.29D-07 Max=3.19D-06 NDo=     1
 LinEq1:  Iter=  4 NonCon=     1 RMS=7.87D-08 Max=5.80D-07 NDo=     1
 LinEq1:  Iter=  5 NonCon=     1 RMS=1.28D-08 Max=1.19D-07 NDo=     1
 LinEq1:  Iter=  6 NonCon=     1 RMS=3.48D-09 Max=3.46D-08 NDo=     1
 LinEq1:  Iter=  7 NonCon=     0 RMS=9.33D-10 Max=8.15D-09 NDo=     1
 Linear equations converged to 2.717D-09 2.717D-08 after     7 iterations.
 Angle between quadratic step and gradient=  86.15 degrees.
     ILin= 1 X=0.000D+00 Y=-2.503963540982D+01 DE= 0.00D+00 F= -1.75D-06
     ILin= 2 X=1.000D+00 Y=-2.503963620650D+01 DE=-7.97D-07 F=  1.58D-07
     Accept linear search using points  1 and  2.
     An  expanding polynomial of degree  2 produced  0.9171
     Minimum is close to point  2 DX= -8.29D-02 DF= -6.54D-09 DXR=  9.04D-02 DFR=  8.22D-03 which will be used.
 Iteration   8 EE= -25.0396362065013     Delta-E=       -0.000000796679 Grad=2.794D-04 Max rot=    0.0067 deg.
 QCNR:  CnvC1=2.72D-09 CnvC2=2.72D-08
 LinEq1:  Iter=  0 NonCon=     1 RMS=4.59D-06 Max=4.02D-05 NDo=     1
 LinEq1:  Iter=  1 NonCon=     1 RMS=1.38D-06 Max=1.16D-05 NDo=     1
 LinEq1:  Iter=  2 NonCon=     1 RMS=3.81D-07 Max=3.50D-06 NDo=     1
 LinEq1:  Iter=  3 NonCon=     1 RMS=7.43D-08 Max=5.93D-07 NDo=     1
 LinEq1:  Iter=  4 NonCon=     1 RMS=1.35D-08 Max=1.39D-07 NDo=     1
 LinEq1:  Iter=  5 NonCon=     1 RMS=2.49D-09 Max=2.83D-08 NDo=     1
 LinEq1:  Iter=  6 NonCon=     0 RMS=3.69D-10 Max=2.61D-09 NDo=     1
 Linear equations converged to 2.717D-09 2.717D-08 after     6 iterations.
 Angle between quadratic step and gradient=  79.15 degrees.
     ILin= 1 X=0.000D+00 Y=-2.503963620650D+01 DE= 0.00D+00 F= -1.04D-07
     ILin= 2 X=1.000D+00 Y=-2.503963625847D+01 DE=-5.20D-08 F=  8.29D-11
     Accept linear search using points  1 and  2.
     An  expanding polynomial of degree  2 produced  0.9992
     Minimum is close to point  2 DX= -7.97D-04 DF= -3.20D-14 DXR=  7.97D-04 DFR=  6.15D-07 which will be used.
 Iteration   9 EE= -25.0396362584738     Delta-E=       -0.000000051973 Grad=1.049D-05 Max rot=    0.0003 deg.
 QCNR:  CnvC1=1.05D-10 CnvC2=1.05D-09
 LinEq1:  Iter=  0 NonCon=     1 RMS=7.68D-08 Max=5.48D-07 NDo=     1
 LinEq1:  Iter=  1 NonCon=     1 RMS=2.18D-08 Max=2.15D-07 NDo=     1
 LinEq1:  Iter=  2 NonCon=     1 RMS=5.47D-09 Max=6.86D-08 NDo=     1
 LinEq1:  Iter=  3 NonCon=     1 RMS=1.44D-09 Max=1.02D-08 NDo=     1
 LinEq1:  Iter=  4 NonCon=     1 RMS=3.29D-10 Max=2.63D-09 NDo=     1
 LinEq1:  Iter=  5 NonCon=     0 RMS=7.30D-11 Max=5.43D-10 NDo=     1
 Linear equations converged to 1.049D-10 1.049D-09 after     5 iterations.
 Angle between quadratic step and gradient=  86.47 degrees.
     ILin= 1 X=0.000D+00 Y=-2.503963625847D+01 DE= 0.00D+00 F= -4.27D-11
     ILin= 2 X=1.000D+00 Y=-2.503963625849D+01 DE=-1.76D-11
 Iteration  10 EE= -25.0396362584914     Delta-E=       -0.000000000018 Grad=4.441D-06 Max rot=    0.0001 deg.
 QCNR:  CnvC1=4.44D-11 CnvC2=4.44D-10
 LinEq1:  Iter=  0 NonCon=     1 RMS=4.30D-08 Max=3.19D-07 NDo=     1
 LinEq1:  Iter=  1 NonCon=     1 RMS=1.15D-08 Max=9.37D-08 NDo=     1
 LinEq1:  Iter=  2 NonCon=     1 RMS=2.46D-09 Max=2.14D-08 NDo=     1
 LinEq1:  Iter=  3 NonCon=     1 RMS=6.02D-10 Max=7.09D-09 NDo=     1
 LinEq1:  Iter=  4 NonCon=     1 RMS=1.55D-10 Max=1.38D-09 NDo=     1
 LinEq1:  Iter=  5 NonCon=     0 RMS=3.12D-11 Max=2.07D-10 NDo=     1
 Linear equations converged to 4.441D-11 4.441D-10 after     5 iterations.
 Angle between quadratic step and gradient=  76.58 degrees.
     ILin= 1 X=0.000D+00 Y=-2.503963625849D+01 DE= 0.00D+00 F= -6.83D-12
     ILin= 2 X=1.000D+00 Y=-2.503963625849D+01 DE=-3.46D-12
 Iteration  11 EE= -25.0396362584949     Delta-E=       -0.000000000003 Grad=4.058D-07 Max rot=    0.0000 deg.
 QCNR:  CnvC1=4.06D-12 CnvC2=4.06D-11
 LinEq1:  Iter=  0 NonCon=     1 RMS=3.67D-09 Max=2.43D-08 NDo=     1
 LinEq1:  Iter=  1 NonCon=     1 RMS=1.03D-09 Max=1.04D-08 NDo=     1
 LinEq1:  Iter=  2 NonCon=     1 RMS=3.07D-10 Max=4.64D-09 NDo=     1
 LinEq1:  Iter=  3 NonCon=     1 RMS=6.82D-11 Max=5.06D-10 NDo=     1
 LinEq1:  Iter=  4 NonCon=     1 RMS=1.56D-11 Max=1.09D-10 NDo=     1
 LinEq1:  Iter=  5 NonCon=     0 RMS=3.97D-12 Max=3.42D-11 NDo=     1
 Linear equations converged to 4.058D-12 4.058D-11 after     5 iterations.
 Angle between quadratic step and gradient=  90.00 degrees.
     ILin= 1 X=0.000D+00 Y=-2.503963625849D+01 DE= 0.00D+00 F= -9.04D-14
     ILin= 2 X=1.000D+00 Y=-2.503963625849D+01 DE=-7.11D-14
 Iteration  12 EE= -25.0396362584949     Delta-E=       -0.000000000000 Grad=1.659D-07 Max rot=    0.0000 deg.
 Rotation gradient small -- convergence achieved.
 Orbital symmetries in SymMO:
    1=1    2=1    3=1    4=3    5=4    6=1    7=1    8=3    9=4   10=1
   11=1   12=2   13=1   14=3   15=4   16=1   17=1   18=3   19=4   20=3
   21=4   22=1   23=1   24=4   25=3   26=2   27=1   28=2   29=1   30=3
   31=4   32=1   33=3   34=4   35=1   36=1   37=2   38=1   39=3   40=4
   41=1   42=3   43=4   44=1   45=3   46=4   47=1   48=4   49=3   50=2
   51=1   52=2   53=1   54=1   55=2   56=3   57=4   58=3   59=4   60=1
   61=1   62=1   63=2   64=3   65=4   66=1   67=3   68=4   69=1   70=3
   71=4   72=2   73=1   74=1   75=1   76=3   77=4   78=2   79=1   80=3
   81=4   82=3   83=4   84=1   85=1   86=3   87=4   88=2   89=1   90=4
   91=3   92=1   93=2   94=1   95=3   96=4   97=1   98=2   99=1  100=3
  101=4  102=3  103=4  104=1  105=2  106=3  107=4  108=1  109=1  110=3
  111=4  112=2  113=1  114=3  115=4  116=1  117=1  118=3  119=4  120=1
  121=2  122=1  123=3  124=4  125=1  126=1
 Orbital symmetries in SymMO:
    1=1    2=1    3=1    4=4    5=3    6=1    7=1    8=4    9=3   10=1
   11=1   12=1   13=2   14=3   15=4   16=1   17=4   18=3   19=1   20=1
   21=4   22=3   23=1   24=4   25=3   26=1   27=2   28=4   29=3   30=2
   31=1   32=1   33=3   34=4   35=1   36=1   37=1   38=2   39=3   40=4
   41=1   42=1   43=3   44=4   45=4   46=3   47=1   48=4   49=3   50=1
   51=2   52=2   53=1   54=4   55=3   56=2   57=1   58=1   59=3   60=4
   61=1   62=3   63=4   64=2   65=1   66=1   67=3   68=4   69=3   70=4
   71=1   72=2   73=1   74=1   75=1   76=3   77=4   78=2   79=1   80=3
   81=4   82=3   83=4   84=1   85=1   86=3   87=4   88=2   89=1   90=4
   91=3   92=2   93=1   94=1   95=3   96=4   97=2   98=1   99=1  100=4
  101=3  102=3  103=4  104=2  105=1  106=3  107=4  108=1  109=1  110=3
  111=4  112=2  113=1  114=3  115=4  116=1  117=1  118=3  119=4  120=1
  121=2  122=1  123=3  124=4  125=1  126=1
 SCF Done:  E(UHF) =  -25.0396362585     a.u. after   12 cycles
            Convg  =    0.1659D-06                    85 Fock formations.
              S**2 =  0.7999                  -V/T =  2.0019
 <Sx>= 0.0000 <Sy>= 0.0000 <Sz>= 0.0000 <S**2>= 0.7999 S= 0.5246
 <L.S>=  0.00000000000    
 Annihilation of the first spin contaminant:
 S**2 before annihilation     0.7999,   after     0.0481
 Leave Link  508 at Sun May 22 10:55:15 2022, MaxMem=   104857600 cpu:               4.9 elap:               4.9
 (Enter /apps/software/g16/l801.exe)
 Range of M.O.s used for correlation:     1   126
 NBasis=   126 NAE=     3 NBE=     3 NFC=     0 NFV=     0
 NROrb=    126 NOA=     3 NOB=     3 NVA=   123 NVB=   123
 Leave Link  801 at Sun May 22 10:55:15 2022, MaxMem=   104857600 cpu:               0.0 elap:               0.0
 (Enter /apps/software/g16/l914.exe)
 UHF ground state
 Doing stability rather than CIS.
 Keep R1 and R2 ints in memory in symmetry-blocked form, NReq=40144005.
 FoFCou: FMM=F IPFlag=           0 FMFlag=           0 FMFlg1=           0
         NFxFlg=           0 DoJE=F BraDBF=F KetDBF=F FulRan=T
         wScrn=  0.000000 ICntrl=       600 IOpCl=  0 I1Cent=           0 NGrid=           0
         NMat0=    1 NMatS0=   8001 NMatT0=    0 NMatD0=    1 NMtDS0=    0 NMtDT0=    0
 Petite list used in FoFCou.
 MDV=   104857600 DFT=F DoStab=T Mixed=F DoRPA=F DoScal=F NonHer=F
 Making orbital integer symmetry assigments:
 Orbital symmetries:
 Alpha Orbitals:
       Occupied  (SG) (SG) (SG)
       Virtual   (PI) (PI) (SG) (SG) (PI) (PI) (SG) (SG) (DLTA)
                 (DLTA) (PI) (PI) (SG) (SG) (PI) (PI) (PI) (PI)
                 (SG) (SG) (PHI) (PHI) (DLTA) (DLTA) (DLTA) (DLTA)
                 (PI) (PI) (SG) (PI) (PI) (SG) (SG) (DLTA) (DLTA)
                 (PI) (PI) (SG) (PI) (PI) (SG) (PI) (PI) (SG) (PHI)
                 (PHI) (?A) (?A) (DLTA) (DLTA) (DLTA) (DLTA) (PI)
                 (PI) (PHI) (PHI) (SG) (SG) (DLTA) (DLTA) (PI)
                 (PI) (SG) (PHI) (PHI) (SG) (PI) (PI) (DLTA) (DLTA)
                 (SG) (SG) (PI) (PI) (DLTA) (DLTA) (PI) (PI) (PI)
                 (PI) (SG) (SG) (PI) (PI) (?A) (?A) (PHI) (PHI)
                 (DLTA) (DLTA) (SG) (PI) (PI) (DLTA) (DLTA) (SG)
                 (PHI) (PHI) (PI) (PI) (DLTA) (DLTA) (PI) (PI)
                 (SG) (SG) (PHI) (PHI) (DLTA) (DLTA) (PI) (PI)
                 (SG) (SG) (PI) (PI) (DLTA) (DLTA) (SG) (PI) (PI)
                 (SG) (SG)
 Beta  Orbitals:
       Occupied  (SG) (SG) (SG)
       Virtual   (PI) (PI) (SG) (SG) (PI) (PI) (SG) (SG) (DLTA)
                 (DLTA) (PI) (PI) (SG) (PI) (PI) (SG) (SG) (PI)
                 (PI) (SG) (PHI) (PHI) (DLTA) (DLTA) (PI) (PI)
                 (DLTA) (DLTA) (SG) (PI) (PI) (SG) (SG) (DLTA)
                 (DLTA) (PI) (PI) (SG) (SG) (PI) (PI) (PI) (PI)
                 (SG) (PHI) (PHI) (?A) (?A) (DLTA) (DLTA) (PI)
                 (PI) (DLTA) (DLTA) (SG) (PHI) (PHI) (SG) (PI)
                 (PI) (DLTA) (DLTA) (SG) (PHI) (PHI) (PI) (PI)
                 (SG) (DLTA) (DLTA) (SG) (SG) (PI) (PI) (DLTA)
                 (DLTA) (PI) (PI) (PI) (PI) (SG) (SG) (PI) (PI)
                 (?A) (?A) (PHI) (PHI) (DLTA) (DLTA) (SG) (PI)
                 (PI) (DLTA) (DLTA) (SG) (PHI) (PHI) (PI) (PI)
                 (DLTA) (DLTA) (PI) (PI) (SG) (SG) (PHI) (PHI)
                 (DLTA) (DLTA) (PI) (PI) (SG) (SG) (PI) (PI) (DLTA)
                 (DLTA) (SG) (PI) (PI) (SG) (SG)
    12 initial guesses have been made.
 Convergence on wavefunction:    0.001000000000000
 Davidson Disk Diagonalization:  ConvIn= 1.00D-03 SkipCon=T Conv= 1.00D-03.
 Max sub-space:  1476 roots to seek:    12 dimension of matrix:          738
 Iteration     1 Dimension    12 NMult     0 NNew     12
 CISAX will form    12 AO SS matrices at one time.
 NMat=    12 NSing=    12 JSym2X= 2.
 Excitation Energies [eV] at current iteration:
 Root      1 :     0.630450414988967
 Root      2 :     0.667152531993365
 Root      3 :     1.312988379254311
 Root      4 :     1.334439851195547
 Root      5 :     4.972537819506876
 Root      6 :     6.092429601558277
 Root      7 :     6.796117039205137
 Root      8 :     8.583344172688234
 Root      9 :     9.146653202647297
 Root     10 :     9.146706654623490
 Root     11 :    11.851868358763229
 Root     12 :    11.852106173070283
 Iteration     2 Dimension    24 NMult    12 NNew     12
 CISAX will form    12 AO SS matrices at one time.
 NMat=    12 NSing=    12 JSym2X= 2.
 Root      1 not converged, maximum delta is    0.060100618980943
 Excitation Energies [eV] at current iteration:
 Root      1 :     0.134992961961950   Change is   -0.495457453027017
 Root      2 :     0.137420945461585   Change is   -0.529731586531780
 Root      3 :     0.896240903096473   Change is   -0.416747476157838
 Root      4 :     0.897848520743854   Change is   -0.436591330451694
 Root      5 :     4.235968152518151   Change is   -0.736569666988725
 Root      6 :     5.166437423414584   Change is   -0.925992178143693
 Root      7 :     6.507650579550893   Change is   -2.075693593137341
 Root      8 :     6.702662642516787   Change is   -0.093454396688350
 Root      9 :     7.814532659764819   Change is   -1.332173994858670
 Root     10 :     7.825183409201850   Change is   -1.321469793445446
 Root     11 :     9.058737515100280   Change is   -2.793368657970002
 Root     12 :     9.059962158535734   Change is   -2.791906200227494
 Iteration     3 Dimension    27 NMult    24 NNew      3
 CISAX will form     3 AO SS matrices at one time.
 NMat=     3 NSing=     3 JSym2X= 2.
 Root      1 not converged, maximum delta is    0.005912471467347
 Excitation Energies [eV] at current iteration:
 Root      1 :     0.127646426016889   Change is   -0.007346535945061
 Root      2 :     0.127698920995643   Change is   -0.009722024465942
 Root      3 :     0.884585622441220   Change is   -0.011655280655253
 Iteration     4 Dimension    30 NMult    27 NNew      3
 CISAX will form     3 AO SS matrices at one time.
 NMat=     3 NSing=     3 JSym2X= 2.
 Root      1 has converged.
 Excitation Energies [eV] at current iteration:
 Root      1 :     0.127570933233002   Change is   -0.000075492783887
 Root      2 :     0.127571977782827   Change is   -0.000126943212816
 Root      3 :     0.884321233179492   Change is   -0.000264389261729
 Convergence achieved on expansion vectors.
 ***********************************************************************
 Stability analysis using <AA,BB:AA,BB> singles matrix:
 ***********************************************************************
 1PDM for each excited state written to RWF  633
 Ground to excited state transition densities written to RWF  633

 Eigenvectors of the stability matrix:
 
 Excited state symmetry could not be determined.
 Eigenvector   1:  2.635-?Sym  Eigenvalue= 0.0046881  <S**2>=1.486
      2A ->  5A       -0.12920
      2A ->  9A        0.14283
      3A ->  5A       -0.19811
      3A ->  9A        0.20285
      3A -> 21A        0.10107
      2B ->  4B        0.17528
      2B ->  8B       -0.16642
      3B ->  4B        0.64836
      3B ->  8B       -0.53948
      3B -> 17B       -0.10653
      3B -> 21B       -0.22165
 The wavefunction is stable under the perturbations considered.
 Leave Link  914 at Sun May 22 10:55:19 2022, MaxMem=   104857600 cpu:               4.1 elap:               4.1
 (Enter /apps/software/g16/l508.exe)
 The wavefunction is already stable.
 Leave Link  508 at Sun May 22 10:55:19 2022, MaxMem=   104857600 cpu:               0.0 elap:               0.0
 (Enter /apps/software/g16/l601.exe)
 Copying SCF densities to generalized density rwf, IOpCl= 1 IROHF=0.

 **********************************************************************

            Population analysis using the SCF density.

 **********************************************************************

 Orbital symmetries:
 Alpha Orbitals:
       Occupied  (SG) (SG) (SG)
       Virtual   (PI) (PI) (SG) (SG) (PI) (PI) (SG) (SG) (DLTA)
                 (DLTA) (PI) (PI) (SG) (SG) (PI) (PI) (PI) (PI)
                 (SG) (SG) (PHI) (PHI) (DLTA) (DLTA) (DLTA) (DLTA)
                 (PI) (PI) (SG) (PI) (PI) (SG) (SG) (DLTA) (DLTA)
                 (PI) (PI) (SG) (PI) (PI) (SG) (PI) (PI) (SG) (PHI)
                 (PHI) (?A) (?A) (DLTA) (DLTA) (DLTA) (DLTA) (PI)
                 (PI) (PHI) (PHI) (SG) (SG) (DLTA) (DLTA) (PI)
                 (PI) (SG) (PHI) (PHI) (SG) (PI) (PI) (DLTA) (DLTA)
                 (SG) (SG) (PI) (PI) (DLTA) (DLTA) (PI) (PI) (PI)
                 (PI) (SG) (SG) (PI) (PI) (?A) (?A) (PHI) (PHI)
                 (DLTA) (DLTA) (SG) (PI) (PI) (DLTA) (DLTA) (SG)
                 (PHI) (PHI) (PI) (PI) (DLTA) (DLTA) (PI) (PI)
                 (SG) (SG) (PHI) (PHI) (DLTA) (DLTA) (PI) (PI)
                 (SG) (SG) (PI) (PI) (DLTA) (DLTA) (SG) (PI) (PI)
                 (SG) (SG)
 Beta  Orbitals:
       Occupied  (SG) (SG) (SG)
       Virtual   (PI) (PI) (SG) (SG) (PI) (PI) (SG) (SG) (DLTA)
                 (DLTA) (PI) (PI) (SG) (PI) (PI) (SG) (SG) (PI)
                 (PI) (SG) (PHI) (PHI) (DLTA) (DLTA) (PI) (PI)
                 (DLTA) (DLTA) (SG) (PI) (PI) (SG) (SG) (DLTA)
                 (DLTA) (PI) (PI) (SG) (SG) (PI) (PI) (PI) (PI)
                 (SG) (PHI) (PHI) (?A) (?A) (DLTA) (DLTA) (PI)
                 (PI) (DLTA) (DLTA) (SG) (PHI) (PHI) (SG) (PI)
                 (PI) (DLTA) (DLTA) (SG) (PHI) (PHI) (PI) (PI)
                 (SG) (DLTA) (DLTA) (SG) (SG) (PI) (PI) (DLTA)
                 (DLTA) (PI) (PI) (PI) (PI) (SG) (SG) (PI) (PI)
                 (?A) (?A) (PHI) (PHI) (DLTA) (DLTA) (SG) (PI)
                 (PI) (DLTA) (DLTA) (SG) (PHI) (PHI) (PI) (PI)
                 (DLTA) (DLTA) (PI) (PI) (SG) (SG) (PHI) (PHI)
                 (DLTA) (DLTA) (PI) (PI) (SG) (SG) (PI) (PI) (DLTA)
                 (DLTA) (SG) (PI) (PI) (SG) (SG)
 The electronic state is 1-SG.
 Alpha  occ. eigenvalues --   -7.71170  -0.50261  -0.42162
 Alpha virt. eigenvalues --    0.02269   0.02269   0.03516   0.05509   0.07730
 Alpha virt. eigenvalues --    0.07730   0.09050   0.11496   0.14370   0.14370
 Alpha virt. eigenvalues --    0.14418   0.14418   0.19019   0.25324   0.25461
 Alpha virt. eigenvalues --    0.25461   0.31516   0.31516   0.34680   0.37061
 Alpha virt. eigenvalues --    0.45816   0.45816   0.46188   0.46188   0.49451
 Alpha virt. eigenvalues --    0.49451   0.50199   0.50199   0.50452   0.53852
 Alpha virt. eigenvalues --    0.53852   0.55021   0.63075   0.71662   0.71662
 Alpha virt. eigenvalues --    0.80973   0.80973   0.89316   0.91292   0.91292
 Alpha virt. eigenvalues --    0.94220   1.06552   1.06552   1.31185   1.35375
 Alpha virt. eigenvalues --    1.35375   1.36307   1.36307   1.37546   1.37546
 Alpha virt. eigenvalues --    1.40405   1.40405   1.40697   1.40697   1.43087
 Alpha virt. eigenvalues --    1.43087   1.44070   1.46084   1.46999   1.46999
 Alpha virt. eigenvalues --    1.47348   1.47348   1.58443   1.63115   1.63115
 Alpha virt. eigenvalues --    1.65679   1.67483   1.67483   1.88588   1.88588
 Alpha virt. eigenvalues --    1.93212   2.09185   2.12736   2.12736   2.52164
 Alpha virt. eigenvalues --    2.52164   2.64835   2.64835   2.78334   2.78334
 Alpha virt. eigenvalues --    2.86530   3.17804   3.75242   3.75242   3.90794
 Alpha virt. eigenvalues --    3.90794   3.93774   3.93774   3.94450   3.94450
 Alpha virt. eigenvalues --    3.98072   3.99073   3.99073   4.00926   4.00926
 Alpha virt. eigenvalues --    4.03054   4.07375   4.07375   4.10287   4.10287
 Alpha virt. eigenvalues --    4.11470   4.11470   4.27702   4.27702   4.37653
 Alpha virt. eigenvalues --    4.53934   6.59371   6.59371   6.66035   6.66035
 Alpha virt. eigenvalues --    6.76661   6.76661   6.77700   7.63786   8.08144
 Alpha virt. eigenvalues --    8.08144   8.45076   8.45076   8.46539   8.53620
 Alpha virt. eigenvalues --    8.53620   8.79810  13.34039
  Beta  occ. eigenvalues --   -7.72325  -0.55426  -0.32682
  Beta virt. eigenvalues --    0.01943   0.01943   0.03124   0.04729   0.07246
  Beta virt. eigenvalues --    0.07246   0.08887   0.10940   0.14369   0.14369
  Beta virt. eigenvalues --    0.14379   0.14379   0.19087   0.26834   0.26834
  Beta virt. eigenvalues --    0.27524   0.30229   0.31000   0.31000   0.36232
  Beta virt. eigenvalues --    0.45822   0.45822   0.45981   0.45981   0.47759
  Beta virt. eigenvalues --    0.47759   0.49369   0.49369   0.50863   0.53644
  Beta virt. eigenvalues --    0.53644   0.59419   0.63749   0.72664   0.72664
  Beta virt. eigenvalues --    0.85635   0.85635   0.90346   0.90985   0.92237
  Beta virt. eigenvalues --    0.92237   1.06133   1.06133   1.29691   1.35052
  Beta virt. eigenvalues --    1.35052   1.36338   1.36338   1.36846   1.36846
  Beta virt. eigenvalues --    1.37141   1.37141   1.40108   1.40108   1.40491
  Beta virt. eigenvalues --    1.43073   1.43073   1.44007   1.44947   1.44947
  Beta virt. eigenvalues --    1.45829   1.45829   1.58255   1.64011   1.64011
  Beta virt. eigenvalues --    1.66932   1.66932   1.70904   1.89133   1.89133
  Beta virt. eigenvalues --    1.93858   2.11645   2.14017   2.14017   2.55616
  Beta virt. eigenvalues --    2.55616   2.67977   2.67977   2.83533   2.83533
  Beta virt. eigenvalues --    2.88629   3.20944   3.74811   3.74811   3.90796
  Beta virt. eigenvalues --    3.90796   3.92849   3.92849   3.93974   3.93974
  Beta virt. eigenvalues --    3.95428   3.95872   3.95872   3.99425   3.99425
  Beta virt. eigenvalues --    3.99934   4.07237   4.07237   4.08355   4.08355
  Beta virt. eigenvalues --    4.09652   4.09652   4.24976   4.24976   4.34930
  Beta virt. eigenvalues --    4.51027   6.61952   6.61952   6.68530   6.68530
  Beta virt. eigenvalues --    6.79086   6.79086   6.80069   7.70748   8.13235
  Beta virt. eigenvalues --    8.13235   8.48864   8.48864   8.51057   8.57317
  Beta virt. eigenvalues --    8.57317   8.83495  13.33318
          Condensed to atoms (all electrons):
               1          2
     1  B    4.914793   0.025315
     2  H    0.025315   1.034578
          Atomic-Atomic Spin Densities.
               1          2
     1  B   -0.854294  -0.070152
     2  H   -0.070152   0.994598
 Mulliken charges and spin densities:
               1          2
     1  B    0.059893  -0.924446
     2  H   -0.059893   0.924446
 Sum of Mulliken charges =  -0.00000   0.00000
 Mulliken charges and spin densities with hydrogens summed into heavy atoms:
               1          2
     1  B   -0.000000   0.000000
 Electronic spatial extent (au):  <R**2>=             36.8212
 Charge=             -0.0000 electrons
 Dipole moment (field-independent basis, Debye):
    X=              0.0000    Y=              0.0000    Z=              0.6079  Tot=              0.6079
 Quadrupole moment (field-independent basis, Debye-Ang):
   XX=             -7.3117   YY=             -7.3117   ZZ=            -11.8470
   XY=              0.0000   XZ=              0.0000   YZ=              0.0000
 Traceless Quadrupole moment (field-independent basis, Debye-Ang):
   XX=              1.5118   YY=              1.5118   ZZ=             -3.0235
   XY=              0.0000   XZ=              0.0000   YZ=              0.0000
 Octapole moment (field-independent basis, Debye-Ang**2):
  XXX=              0.0000  YYY=              0.0000  ZZZ=              0.9278  XYY=              0.0000
  XXY=              0.0000  XXZ=              0.6919  XZZ=              0.0000  YZZ=              0.0000
  YYZ=              0.6919  XYZ=              0.0000
 Hexadecapole moment (field-independent basis, Debye-Ang**3):
 XXXX=            -10.6451 YYYY=            -10.6451 ZZZZ=            -71.2367 XXXY=              0.0000
 XXXZ=              0.0000 YYYX=              0.0000 YYYZ=              0.0000 ZZZX=              0.0000
 ZZZY=              0.0000 XXYY=             -3.5484 XXZZ=            -12.4339 YYZZ=            -12.4339
 XXYZ=              0.0000 YYXZ=              0.0000 ZZXY=              0.0000
 N-N= 1.102452522750D+00 E-N=-6.003538355452D+01  KE= 2.499148239070D+01
 Symmetry A1   KE= 2.499148239070D+01
 Symmetry A2   KE= 0.000000000000D+00
 Symmetry B1   KE= 0.000000000000D+00
 Symmetry B2   KE= 0.000000000000D+00
 Symmetry A1   SP= 5.833406443884D-15
 Symmetry A2   SP= 0.000000000000D+00
 Symmetry B1   SP= 0.000000000000D+00
 Symmetry B2   SP= 0.000000000000D+00
                          Isotropic Fermi Contact Couplings
        Atom                 a.u.       MegaHertz       Gauss      10(-4) cm-1
     1  B(11)              0.07002      50.21780      17.91896      16.75086
     2  H(1)               0.26975     602.87515     215.12084     201.09750
 --------------------------------------------------------
       Center         ----  Spin Dipole Couplings  ----
                      3XX-RR        3YY-RR        3ZZ-RR
 --------------------------------------------------------
     1   Atom        0.287547      0.287547     -0.575093
     2   Atom        0.017846      0.017846     -0.035692
 --------------------------------------------------------
                        XY            XZ            YZ
 --------------------------------------------------------
     1   Atom        0.000000      0.000000      0.000000
     2   Atom        0.000000      0.000000      0.000000
 --------------------------------------------------------


 ---------------------------------------------------------------------------------
              Anisotropic Spin Dipole Couplings in Principal Axis System
 ---------------------------------------------------------------------------------

       Atom             a.u.   MegaHertz   Gauss  10(-4) cm-1        Axes

              Baa    -0.5751   -98.464   -35.135   -32.844  0.0000  0.0000  1.0000
     1 B(11)  Bbb     0.2875    49.232    17.567    16.422 -0.0000  1.0000  0.0000
              Bcc     0.2875    49.232    17.567    16.422  1.0000  0.0000  0.0000
 
              Baa    -0.0357   -19.044    -6.795    -6.352  0.0000  0.0000  1.0000
     2 H(1)   Bbb     0.0178     9.522     3.398     3.176 -0.0000  1.0000  0.0000
              Bcc     0.0178     9.522     3.398     3.176  1.0000  0.0000  0.0000
 

 ---------------------------------------------------------------------------------

 No NMR shielding tensors so no spin-rotation constants.
 Leave Link  601 at Sun May 22 10:55:20 2022, MaxMem=   104857600 cpu:               0.2 elap:               0.2
 (Enter /apps/software/g16/l9999.exe)
 1\1\GINC-CNODE13\Stability\UHF\Aug-CC-pVQZ\B1H1\LCZ\22-May-2022\0\\#p 
 UHF/aug-cc-pVQZ guess=mix stable=opt\\BH UHF at 2.4 Angstrom\\0,1\B,0,
 0.,0.,0.\H,0,2.4,0.,0.\\Version=ES64L-G16RevA.03\State=1-SG\HF=-25.039
 6363\S2=0.799861\S2-1=0.\S2A=0.048097\RMSD=6.107e-09\Dipole=-0.2391558
 ,0.,0.\Quadrupole=-2.2479118,1.1239559,1.1239559,0.,0.,0.\PG=C*V [C*(H
 1B1)]\\@


    THE DOUGHNUT CREED
 AS YOU RAMBLE ON THROUGH LIFE, BROTHER
 WHATEVER BE YOUR GOAL
 KEEP YOUR EYE UPON THE DOUGHNUT
 AND NOT UPON THE HOLE.
 Job cpu time:       0 days  0 hours  0 minutes 18.0 seconds.
 Elapsed time:       0 days  0 hours  0 minutes 18.0 seconds.
 File lengths (MBytes):  RWF=     33 Int=      0 D2E=      0 Chk=      4 Scr=      1
 Normal termination of Gaussian 16 at Sun May 22 10:55:20 2022.

Sender: Unischeduler System <lcz@mgt01>
Subject: Job 133838: <#!/bin/bash
#BSUB -J intel
#BSUB -o BH-2.4-UHF-G.out
#BSUB -n 8
#BSUB -q cqueue
#BSUB -R span[hosts=1]
export g16root=/apps/software
source /apps/software/g16/bsd/g16.profile
export GAUSS_SCRDIR=/scratch
/apps/software/g16/g16 < BH-2.4-UHF-G.inp > BH-2.4-UHF-G.out> Done

Job <#!/bin/bash
#BSUB -J intel
#BSUB -o BH-2.4-UHF-G.out
#BSUB -n 8
#BSUB -q cqueue
#BSUB -R span[hosts=1]
export g16root=/apps/software
source /apps/software/g16/bsd/g16.profile
export GAUSS_SCRDIR=/scratch
/apps/software/g16/g16 < BH-2.4-UHF-G.inp > BH-2.4-UHF-G.out> was submitted from host <mgt01> by user <lcz>.
Job was executed on host(s) <8*cnode13>, in queue <cqueue>, as user <lcz>.
</apps/users/lcz> was used as the home directory.
</apps/users/lcz/exe13/UMP2> was used as the working directory.
Started at 2022-05-22 10:55:01
Results reported at 2022-05-22 10:55:20

Your job looked like:

------------------------------------------------------------
# User input
#!/bin/bash
#BSUB -J intel
#BSUB -o BH-2.4-UHF-G.out
#BSUB -n 8
#BSUB -q cqueue
#BSUB -R span[hosts=1]
export g16root=/apps/software
source /apps/software/g16/bsd/g16.profile
export GAUSS_SCRDIR=/scratch
/apps/software/g16/g16 < BH-2.4-UHF-G.inp > BH-2.4-UHF-G.out
------------------------------------------------------------

Successfully completed.

Resource usage summary:

    CPU time   :           16.14 sec.
    Max Memory :               479 MB
    Max Processes  :               5


The output (if any) follows:

