
                                        *****************
                                        * O   R   C   A *
                                        *****************

                                            #,                                       
                                            ###                                      
                                            ####                                     
                                            #####                                    
                                            ######                                   
                                           ########,                                 
                                     ,,################,,,,,                         
                               ,,#################################,,                 
                          ,,##########################################,,             
                       ,#########################################, ''#####,          
                    ,#############################################,,   '####,        
                  ,##################################################,,,,####,       
                ,###########''''           ''''###############################       
              ,#####''   ,,,,##########,,,,          '''####'''          '####       
            ,##' ,,,,###########################,,,                        '##       
           ' ,,###''''                  '''############,,,                           
         ,,##''                                '''############,,,,        ,,,,,,###''
      ,#''                                            '''#######################'''  
     '                                                          ''''####''''         
             ,#######,   #######,   ,#######,      ##                                
            ,#'     '#,  ##    ##  ,#'     '#,    #''#        ######   ,####,        
            ##       ##  ##   ,#'  ##            #'  '#       #        #'  '#        
            ##       ##  #######   ##           ,######,      #####,   #    #        
            '#,     ,#'  ##    ##  '#,     ,#' ,#      #,         ##   #,  ,#        
             '#######'   ##     ##  '#######'  #'      '#     #####' # '####'        



                  #######################################################
                  #                        -***-                        #
                  #          Department of theory and spectroscopy      #
                  #    Directorship and core code : Frank Neese         #
                  #        Max Planck Institute fuer Kohlenforschung    #
                  #                Kaiser Wilhelm Platz 1               #
                  #                 D-45470 Muelheim/Ruhr               #
                  #                      Germany                        #
                  #                                                     #
                  #                  All rights reserved                #
                  #                        -***-                        #
                  #######################################################


                         Program Version 5.0.0 -  RELEASE  -
                                (SVN: $Rev: 19529$)
                ($Date: 2021-06-28 11:36:33 +0200 (Mo, 28 Jun 2021) $)


 With contributions from (in alphabetic order):
   Daniel Aravena         : Magnetic Suceptibility
   Michael Atanasov       : Ab Initio Ligand Field Theory (pilot matlab implementation)
   Alexander A. Auer      : GIAO ZORA, VPT2 properties, NMR spectrum
   Ute Becker             : Parallelization
   Giovanni Bistoni       : ED, misc. LED, open-shell LED, HFLD
   Martin Brehm           : Molecular dynamics
   Dmytro Bykov           : SCF Hessian
   Vijay G. Chilkuri      : MRCI spin determinant printing, contributions to CSF-ICE
   Dipayan Datta          : RHF DLPNO-CCSD density
   Achintya Kumar Dutta   : EOM-CC, STEOM-CC
   Dmitry Ganyushin       : Spin-Orbit,Spin-Spin,Magnetic field MRCI
   Miquel Garcia          : C-PCM Hessian, Gaussian charge scheme
   Yang Guo               : DLPNO-NEVPT2, F12-NEVPT2, CIM, IAO-localization
   Andreas Hansen         : Spin unrestricted coupled pair/coupled cluster methods
   Benjamin Helmich-Paris : MC-RPA, TRAH-SCF, COSX integrals
   Lee Huntington         : MR-EOM, pCC
   Robert Izsak           : Overlap fitted RIJCOSX, COSX-SCS-MP3, EOM
   Marcus Kettner         : VPT2
   Christian Kollmar      : KDIIS, OOCD, Brueckner-CCSD(T), CCSD density, CASPT2, CASPT2-K
   Simone Kossmann        : Meta GGA functionals, TD-DFT gradient, OOMP2, MP2 Hessian
   Martin Krupicka        : Initial AUTO-CI
   Lucas Lang             : DCDCAS
   Marvin Lechner         : AUTO-CI (C++ implementation), FIC-MRCC
   Dagmar Lenk            : GEPOL surface, SMD
   Dimitrios Liakos       : Extrapolation schemes; Compound Job, initial MDCI parallelization
   Dimitrios Manganas     : Further ROCIS development; embedding schemes
   Dimitrios Pantazis     : SARC Basis sets
   Anastasios Papadopoulos: AUTO-CI, single reference methods and gradients
   Taras Petrenko         : DFT Hessian,TD-DFT gradient, ASA, ECA, R-Raman, ABS, FL, XAS/XES, NRVS
   Peter Pinski           : DLPNO-MP2, DLPNO-MP2 Gradient
   Christoph Reimann      : Effective Core Potentials
   Marius Retegan         : Local ZFS, SOC
   Christoph Riplinger    : Optimizer, TS searches, QM/MM, DLPNO-CCSD(T), (RO)-DLPNO pert. Triples
   Tobias Risthaus        : Range-separated hybrids, TD-DFT gradient, RPA, STAB
   Michael Roemelt        : Original ROCIS implementation
   Masaaki Saitow         : Open-shell DLPNO-CCSD energy and density
   Barbara Sandhoefer     : DKH picture change effects
   Avijit Sen             : IP-ROCIS
   Kantharuban Sivalingam : CASSCF convergence, NEVPT2, FIC-MRCI
   Bernardo de Souza      : ESD, SOC TD-DFT
   Georgi Stoychev        : AutoAux, RI-MP2 NMR
   Willem Van den Heuvel  : Paramagnetic NMR
   Boris Wezisla          : Elementary symmetry handling
   Frank Wennmohs         : Technical directorship


 We gratefully acknowledge several colleagues who have allowed us to
 interface, adapt or use parts of their codes:
   Stefan Grimme, W. Hujo, H. Kruse, P. Pracht,  : VdW corrections, initial TS optimization,
                  C. Bannwarth, S. Ehlert          DFT functionals, gCP, sTDA/sTD-DF
   Ed Valeev, F. Pavosevic, A. Kumar             : LibInt (2-el integral package), F12 methods
   Garnet Chan, S. Sharma, J. Yang, R. Olivares  : DMRG
   Ulf Ekstrom                                   : XCFun DFT Library
   Mihaly Kallay                                 : mrcc  (arbitrary order and MRCC methods)
   Jiri Pittner, Ondrej Demel                    : Mk-CCSD
   Frank Weinhold                                : gennbo (NPA and NBO analysis)
   Christopher J. Cramer and Donald G. Truhlar   : smd solvation model
   Lars Goerigk                                  : TD-DFT with DH, B97 family of functionals
   V. Asgeirsson, H. Jonsson                     : NEB implementation
   FAccTs GmbH                                   : IRC, NEB, NEB-TS, DLPNO-Multilevel, CI-OPT
                                                   MM, QMMM, 2- and 3-layer-ONIOM, Crystal-QMMM,
                                                   LR-CPCM, SF, NACMEs, symmetry and pop. for TD-DFT,
                                                   nearIR, NL-DFT gradient (VV10), updates on ESD,
                                                   ML-optimized integration grids
   S Lehtola, MJT Oliveira, MAL Marques          : LibXC Library
   Liviu Ungur et al                             : ANISO software


 Your calculation uses the libint2 library for the computation of 2-el integrals
 For citations please refer to: http://libint.valeyev.net

 Your ORCA version has been built with support for libXC version: 5.1.0
 For citations please refer to: https://tddft.org/programs/libxc/

 This ORCA versions uses:
   CBLAS   interface :  Fast vector & matrix operations
   LAPACKE interface :  Fast linear algebra routines
   SCALAPACK package :  Parallel linear algebra routines
   Shared memory     :  Shared parallel matrices
   BLAS/LAPACK       :  OpenBLAS 0.3.15  USE64BITINT DYNAMIC_ARCH NO_AFFINITY SkylakeX SINGLE_THREADED
        Core in use  :  SkylakeX
   Copyright (c) 2011-2014, The OpenBLAS Project


================================================================================

----- Orbital basis set information -----
Your calculation utilizes the basis: aug-cc-pVQZ 
    H, B-Ne : Obtained from the ccRepo (grant-hill.group.shef.ac.uk/ccrepo) Feb. 2017
              R. A. Kendall, T. H. Dunning, Jr., R. J. Harrison, J. Chem. Phys. 96, 6796 (1992)
         He : Obtained from the ccRepo (grant-hill.group.shef.ac.uk/ccrepo) Feb. 2017
              D. E. Woon, T. H. Dunning, Jr., J. Chem. Phys. 100, 2975 (1994)
  Li-Be, Na : Obtained from the ccRepo (grant-hill.group.shef.ac.uk/ccrepo) Feb. 2017
              B. P. Prascher, D. E. Woon, K. A. Peterson, T. H. Dunning, Jr., A. K. Wilson, Theor. Chem. Acc. 128, 69 (2011)
         Mg : Obtained from the Peterson Research Group Website (tyr0.chem.wsu.edu/~kipeters) Feb. 2017
              B. P. Prascher, D. E. Woon, K. A. Peterson, T. H. Dunning, Jr., A. K. Wilson, Theor. Chem. Acc. 128, 69 (2011)
      Al-Ar : Obtained from the ccRepo (grant-hill.group.shef.ac.uk/ccrepo) Feb. 2017
              D. E. Woon, T. H. Dunning, Jr., J. Chem. Phys. 98, 1358 (1993)
      Sc-Zn : Obtained from the ccRepo (grant-hill.group.shef.ac.uk/ccrepo) Feb. 2017
              N. B. Balabanov, K. A. Peterson, J. Chem. Phys. 123, 064107 (2005)
              N. B. Balabanov, K. A. Peterson, J. Chem. Phys. 125, 074110 (2006)
      Ga-Kr : Obtained from the ccRepo (grant-hill.group.shef.ac.uk/ccrepo) Feb. 2017
              A. K. Wilson, D. E. Woon, K. A. Peterson, T. H. Dunning, Jr., J. Chem. Phys. 110, 7667 (1999)

================================================================================
                                        WARNINGS
                       Please study these warnings very carefully!
================================================================================


WARNING: No MP2 level density has been requested!
         To caclulate MP2 level properties use
         %mp2 Density relaxed end
         or
         %mp2 Density unrelaxed end

WARNING: Post HF methods need fully converged wavefunctions
  ===> : Setting SCFConvForced true
         You can overwrite this default with %scf ConvForced false 


INFO   : the flag for use of the SHARK integral package has been found!

================================================================================
                                       INPUT FILE
================================================================================
NAME = /scratch/BH-3.8-UMP2-O_645/BH-3.8-UMP2-O.inp
|  1> ! UHF MP2 aug-cc-pVQZ pal8 VeryTightSCF MOread
|  2> 
|  3> %moinp "BH-3.8-UHF-O.gbw"
|  4> 
|  5> *xyz 0 1
|  6>  B	0.0	0.0	0.0
|  7>  H	3.8	0.0	0.0
|  8> **                         ****END OF INPUT****
================================================================================

                       ****************************
                       * Single Point Calculation *
                       ****************************

---------------------------------
CARTESIAN COORDINATES (ANGSTROEM)
---------------------------------
  B      0.000000    0.000000    0.000000
  H      3.800000    0.000000    0.000000

----------------------------
CARTESIAN COORDINATES (A.U.)
----------------------------
  NO LB      ZA    FRAG     MASS         X           Y           Z
   0 B     5.0000    0    10.810    0.000000    0.000000    0.000000
   1 H     1.0000    0     1.008    7.180959    0.000000    0.000000

--------------------------------
INTERNAL COORDINATES (ANGSTROEM)
--------------------------------
 B      0   0   0     0.000000000000     0.00000000     0.00000000
 H      1   0   0     3.800000000000     0.00000000     0.00000000

---------------------------
INTERNAL COORDINATES (A.U.)
---------------------------
 B      0   0   0     0.000000000000     0.00000000     0.00000000
 H      1   0   0     7.180959308901     0.00000000     0.00000000

---------------------
BASIS SET INFORMATION
---------------------
There are 2 groups of distinct atoms

 Group   1 Type B   : 22s7p4d3f2g contracted to 6s5p4d3f2g pattern {991111/31111/1111/111/11}
 Group   2 Type H   : 7s4p3d2f contracted to 5s4p3d2f pattern {31111/1111/111/11}

Atom   0B    basis set group =>   1
Atom   1H    basis set group =>   2
--------------------------------------------------------------------------
WARNING: There was an error initializing an OpenFabrics device.

  Local host:   cnode12
  Local device: mlx5_0
--------------------------------------------------------------------------


           ************************************************************
           *        Program running with 8 parallel MPI-processes     *
           *              working on a common directory               *
           ************************************************************
------------------------------------------------------------------------------
                           ORCA GTO INTEGRAL CALCULATION
------------------------------------------------------------------------------
------------------------------------------------------------------------------
                   ___                                                        
                  /   \      - P O W E R E D   B Y -                         
                 /     \                                                     
                 |  |  |   _    _      __       _____    __    __             
                 |  |  |  | |  | |    /  \     |  _  \  |  |  /  |          
                  \  \/   | |  | |   /    \    | | | |  |  | /  /          
                 / \  \   | |__| |  /  /\  \   | |_| |  |  |/  /          
                |  |  |   |  __  | /  /__\  \  |    /   |      \           
                |  |  |   | |  | | |   __   |  |    \   |  |\   \          
                \     /   | |  | | |  |  |  |  | |\  \  |  | \   \       
                 \___/    |_|  |_| |__|  |__|  |_| \__\ |__|  \__/        
                                                                              
                      - O R C A' S   B I G   F R I E N D -                    
                                      &                                       
                       - I N T E G R A L  F E E D E R -                       
                                                                              
 v1 FN, 2020, v2 2021                                                         
------------------------------------------------------------------------------


Reading SHARK input file /scratch/BH-3.8-UMP2-O_645/BH-3.8-UMP2-O.SHARKINP.tmp ... ok
----------------------
SHARK INTEGRAL PACKAGE
----------------------

Number of atoms                             ...      2
Number of basis functions                   ...    126
Number of shells                            ...     34
Maximum angular momentum                    ...      4
Integral batch strategy                     ... SHARK/LIBINT Hybrid
RI-J (if used) integral strategy            ... SPLIT-RIJ (Revised 2003 algorithm where possible)
Printlevel                                  ...      1
Contraction scheme used                     ... SEGMENTED contraction
Coulomb Range Separation                    ... NOT USED
Exchange Range Separation                   ... NOT USED
Finite Nucleus Model                        ... NOT USED
Auxiliary Coulomb fitting basis             ... NOT available
Auxiliary J/K fitting basis                 ... NOT available
Auxiliary Correlation fitting basis         ... NOT available
Auxiliary 'external' fitting basis          ... NOT available
Integral threshold                          ...     1.000000e-12
Primitive cut-off                           ...     1.000000e-14
Primitive pair pre-selection threshold      ...     1.000000e-14

Calculating pre-screening integrals         ... done (  0.1 sec) Dimension = 34
Organizing shell pair data                  ... done (  0.0 sec)
Shell pair information
Total number of shell pairs                 ...       595
Shell pairs after pre-screening             ...       582
Total number of primitive shell pairs       ...      1563
Primitive shell pairs kept                  ...      1390
          la=0 lb=0:     64 shell pairs
          la=1 lb=0:     96 shell pairs
          la=1 lb=1:     44 shell pairs
          la=2 lb=0:     74 shell pairs
          la=2 lb=1:     61 shell pairs
          la=2 lb=2:     28 shell pairs
          la=3 lb=0:     53 shell pairs
          la=3 lb=1:     45 shell pairs
          la=3 lb=2:     35 shell pairs
          la=3 lb=3:     15 shell pairs
          la=4 lb=0:     22 shell pairs
          la=4 lb=1:     18 shell pairs
          la=4 lb=2:     14 shell pairs
          la=4 lb=3:     10 shell pairs
          la=4 lb=4:      3 shell pairs

Calculating one electron integrals          ... done (  0.0 sec)
Calculating Nuclear repulsion               ... done (  0.0 sec) ENN=      0.696285800395 Eh

SHARK setup successfully completed in   0.1 seconds

Maximum memory used throughout the entire GTOINT-calculation: 28.9 MB
[cnode12:273478] 7 more processes have sent help message help-mpi-btl-openib.txt / error in device init
[cnode12:273478] Set MCA parameter "orte_base_help_aggregate" to 0 to see all help / error messages
--------------------------------------------------------------------------
WARNING: There was an error initializing an OpenFabrics device.

  Local host:   cnode12
  Local device: mlx5_0
--------------------------------------------------------------------------


           ************************************************************
           *        Program running with 8 parallel MPI-processes     *
           *              working on a common directory               *
           ************************************************************
-------------------------------------------------------------------------------
                                 ORCA SCF
-------------------------------------------------------------------------------

------------
SCF SETTINGS
------------
Hamiltonian:
 Ab initio Hamiltonian  Method          .... Hartree-Fock(GTOs)


General Settings:
 Integral files         IntName         .... /scratch/BH-3.8-UMP2-O_645/BH-3.8-UMP2-O
 Hartree-Fock type      HFTyp           .... UHF
 Total Charge           Charge          ....    0
 Multiplicity           Mult            ....    1
 Number of Electrons    NEL             ....    6
 Basis Dimension        Dim             ....  126
 Nuclear Repulsion      ENuc            ....      0.6962858004 Eh

Convergence Acceleration:
 DIIS                   CNVDIIS         .... on
   Start iteration      DIISMaxIt       ....    12
   Startup error        DIISStart       ....  0.200000
   # of expansion vecs  DIISMaxEq       ....     5
   Bias factor          DIISBfac        ....   1.050
   Max. coefficient     DIISMaxC        ....  10.000
 Trust-Rad. Augm. Hess. CNVTRAH         .... auto
   Auto Start mean grad. ratio tolernc. ....  1.125000
   Auto Start start iteration           ....     1
   Auto Start num. interpolation iter.  ....    10
   Max. Number of Micro iterations      ....    16
   Max. Number of Macro iterations      .... Maxiter - #DIIS iter
   Number of Davidson start vectors     ....     2
   Converg. threshold I  (grad. norm)   ....   2.000e-06
   Converg. threshold II (energy diff.) ....   1.000e-09
   Grad. Scal. Fac. for Micro threshold ....   0.100
   Minimum threshold for Micro iter.    ....   0.010
   NR start threshold (gradient norm)   ....   0.001
   Initial trust radius                 ....   0.400
   Minimum AH scaling param. (alpha)    ....   1.000
   Maximum AH scaling param. (alpha)    .... 1000.000
   Orbital update algorithm             .... Taylor
   White noise on init. David. guess    .... on
   Maximum white noise                  ....   0.010
   Quad. conv. algorithm                .... NR
 SOSCF                  CNVSOSCF        .... off
 Level Shifting         CNVShift        .... on
   Level shift para.    LevelShift      ....    0.2500
   Turn off err/grad.   ShiftErr        ....    0.0010
 Zerner damping         CNVZerner       .... off
 Static damping         CNVDamp         .... on
   Fraction old density DampFac         ....    0.7000
   Max. Damping (<1)    DampMax         ....    0.9800
   Min. Damping (>=0)   DampMin         ....    0.0000
   Turn off err/grad.   DampErr         ....    0.1000
 Fernandez-Rico         CNVRico         .... off

SCF Procedure:
 Maximum # iterations   MaxIter         ....   125
 SCF integral mode      SCFMode         .... Direct
   Integral package                     .... SHARK and LIBINT hybrid scheme
 Reset frequency        DirectResetFreq ....    20
 Integral Threshold     Thresh          ....  1.000e-12 Eh
 Primitive CutOff       TCut            ....  1.000e-14 Eh

Convergence Tolerance:
 Convergence Check Mode ConvCheckMode   .... Total+1el-Energy
 Convergence forced     ConvForced      .... 1
 Energy Change          TolE            ....  1.000e-09 Eh
 1-El. energy change                    ....  1.000e-06 Eh
 DIIS Error             TolErr          ....  1.000e-08


Diagonalization of the overlap matrix:
Smallest eigenvalue                        ... 4.783e-03
Time for diagonalization                   ...    0.002 sec
Threshold for overlap eigenvalues          ... 1.000e-08
Number of eigenvalues below threshold      ... 0
Time for construction of square roots      ...    0.002 sec
Total time needed                          ...    0.004 sec

---------------------
INITIAL GUESS: MOREAD
---------------------
Guess MOs are being read from file: BH-3.8-UHF-O.gbw
Input Geometry matches current geometry (good)
Input basis set matches current basis set (good)
MOs were renormalized
MOs were reorthogonalized (Cholesky)
                      ------------------
                      INITIAL GUESS DONE (   0.0 sec)
                      ------------------
--------------
SCF ITERATIONS
--------------
ITER       Energy         Delta-E        Max-DP      RMS-DP      [F,P]     Damp
               ***  Starting incremental Fock matrix formation  ***
  0    -25.0330663655   0.000000000000 0.00000000  0.00000000  0.0000000 0.7000
                 **** Energy Check signals convergence ****

               *****************************************************
               *                     SUCCESS                       *
               *           SCF CONVERGED AFTER   1 CYCLES          *
               *****************************************************


----------------
TOTAL SCF ENERGY
----------------

Total Energy       :          -25.03306637 Eh            -681.18437 eV

Components:
Nuclear Repulsion  :            0.69628580 Eh              18.94690 eV
Electronic Energy  :          -25.72935217 Eh            -700.13127 eV
One Electron Energy:          -34.26405119 Eh            -932.37223 eV
Two Electron Energy:            8.53469902 Eh             232.24097 eV

Virial components:
Potential Energy   :          -50.06428771 Eh           -1362.31853 eV
Kinetic Energy     :           25.03122135 Eh             681.13416 eV
Virial Ratio       :            2.00007371


---------------
SCF CONVERGENCE
---------------

  Last Energy change         ...    1.1546e-12  Tolerance :   1.0000e-09
  Last MAX-Density change    ...    6.1828e-10  Tolerance :   1.0000e-08
  Last RMS-Density change    ...    8.5417e-12  Tolerance :   1.0000e-09
  Last DIIS Error            ...    5.1924e-10  Tolerance :   1.0000e-08

             **** THE GBW FILE WAS UPDATED (/scratch/BH-3.8-UMP2-O_645/BH-3.8-UMP2-O.gbw) ****
             **** DENSITY /scratch/BH-3.8-UMP2-O_645/BH-3.8-UMP2-O.scfp WAS UPDATED ****
             **** ENERGY FILE WAS UPDATED (/scratch/BH-3.8-UMP2-O_645/BH-3.8-UMP2-O.en.tmp) ****
----------------------
UHF SPIN CONTAMINATION
----------------------

Expectation value of <S**2>     :     1.005095
Ideal value S*(S+1) for S=0.0   :     0.000000
Deviation                       :     1.005095

             **** THE GBW FILE WAS UPDATED (/scratch/BH-3.8-UMP2-O_645/BH-3.8-UMP2-O.gbw) ****
             **** DENSITY /scratch/BH-3.8-UMP2-O_645/BH-3.8-UMP2-O.scfp WAS UPDATED ****
----------------
ORBITAL ENERGIES
----------------
                 SPIN UP ORBITALS
  NO   OCC          E(Eh)            E(eV) 
   0   1.0000      -7.702413      -209.5933 
   1   1.0000      -0.545796       -14.8519 
   2   1.0000      -0.319047        -8.6817 
   3   0.0000       0.021883         0.5955 
   4   0.0000       0.023345         0.6352 
   5   0.0000       0.023345         0.6352 
   6   0.0000       0.049030         1.3342 
   7   0.0000       0.076922         2.0932 
   8   0.0000       0.076922         2.0932 
   9   0.0000       0.078929         2.1478 
  10   0.0000       0.107228         2.9178 
  11   0.0000       0.143641         3.9087 
  12   0.0000       0.143641         3.9087 
  13   0.0000       0.145481         3.9587 
  14   0.0000       0.145481         3.9587 
  15   0.0000       0.186156         5.0656 
  16   0.0000       0.231124         6.2892 
  17   0.0000       0.231124         6.2892 
  18   0.0000       0.249590         6.7917 
  19   0.0000       0.311809         8.4847 
  20   0.0000       0.311809         8.4847 
  21   0.0000       0.330027         8.9805 
  22   0.0000       0.353146         9.6096 
  23   0.0000       0.461590        12.5605 
  24   0.0000       0.461590        12.5605 
  25   0.0000       0.462572        12.5872 
  26   0.0000       0.462572        12.5872 
  27   0.0000       0.469713        12.7815 
  28   0.0000       0.469713        12.7815 
  29   0.0000       0.474296        12.9063 
  30   0.0000       0.500073        13.6077 
  31   0.0000       0.500073        13.6077 
  32   0.0000       0.503229        13.6936 
  33   0.0000       0.503229        13.6936 
  34   0.0000       0.505703        13.7609 
  35   0.0000       0.574512        15.6333 
  36   0.0000       0.643489        17.5102 
  37   0.0000       0.643489        17.5102 
  38   0.0000       0.721583        19.6353 
  39   0.0000       0.721583        19.6353 
  40   0.0000       0.837746        22.7962 
  41   0.0000       0.843600        22.9555 
  42   0.0000       0.843600        22.9555 
  43   0.0000       0.941992        25.6329 
  44   0.0000       1.052332        28.6354 
  45   0.0000       1.052332        28.6354 
  46   0.0000       1.054492        28.6942 
  47   0.0000       1.369603        37.2688 
  48   0.0000       1.369603        37.2688 
  49   0.0000       1.375947        37.4414 
  50   0.0000       1.375947        37.4414 
  51   0.0000       1.378801        37.5191 
  52   0.0000       1.378801        37.5191 
  53   0.0000       1.378914        37.5222 
  54   0.0000       1.383236        37.6398 
  55   0.0000       1.383236        37.6398 
  56   0.0000       1.394725        37.9524 
  57   0.0000       1.403711        38.1969 
  58   0.0000       1.403711        38.1969 
  59   0.0000       1.410512        38.3820 
  60   0.0000       1.410512        38.3820 
  61   0.0000       1.438520        39.1441 
  62   0.0000       1.438520        39.1441 
  63   0.0000       1.444647        39.3108 
  64   0.0000       1.444647        39.3108 
  65   0.0000       1.451779        39.5049 
  66   0.0000       1.474543        40.1244 
  67   0.0000       1.474543        40.1244 
  68   0.0000       1.563464        42.5440 
  69   0.0000       1.577179        42.9172 
  70   0.0000       1.577179        42.9172 
  71   0.0000       1.592461        43.3331 
  72   0.0000       1.592461        43.3331 
  73   0.0000       1.669879        45.4397 
  74   0.0000       1.669879        45.4397 
  75   0.0000       1.708497        46.4906 
  76   0.0000       1.849943        50.3395 
  77   0.0000       2.498278        67.9816 
  78   0.0000       2.498278        67.9816 
  79   0.0000       2.544105        69.2286 
  80   0.0000       2.544105        69.2286 
  81   0.0000       2.649046        72.0842 
  82   0.0000       2.649046        72.0842 
  83   0.0000       2.660765        72.4031 
  84   0.0000       2.729748        74.2802 
  85   0.0000       3.737685       101.7076 
  86   0.0000       3.737685       101.7076 
  87   0.0000       3.765310       102.4593 
  88   0.0000       3.919066       106.6432 
  89   0.0000       3.919066       106.6432 
  90   0.0000       3.934159       107.0539 
  91   0.0000       3.934159       107.0539 
  92   0.0000       3.945862       107.3724 
  93   0.0000       3.945862       107.3724 
  94   0.0000       3.955330       107.6300 
  95   0.0000       3.955330       107.6300 
  96   0.0000       3.962195       107.8168 
  97   0.0000       3.962195       107.8168 
  98   0.0000       3.966030       107.9212 
  99   0.0000       3.972646       108.1012 
 100   0.0000       3.972646       108.1012 
 101   0.0000       4.074252       110.8660 
 102   0.0000       4.085421       111.1700 
 103   0.0000       4.085421       111.1700 
 104   0.0000       4.100903       111.5912 
 105   0.0000       4.100903       111.5912 
 106   0.0000       4.128467       112.3413 
 107   0.0000       4.128467       112.3413 
 108   0.0000       4.180540       113.7583 
 109   0.0000       6.586598       179.2305 
 110   0.0000       6.586598       179.2305 
 111   0.0000       6.589138       179.2996 
 112   0.0000       6.589138       179.2996 
 113   0.0000       6.603444       179.6888 
 114   0.0000       6.603444       179.6888 
 115   0.0000       6.628491       180.3704 
 116   0.0000       7.537958       205.1183 
 117   0.0000       8.004745       217.8202 
 118   0.0000       8.004745       217.8202 
 119   0.0000       8.050248       219.0584 
 120   0.0000       8.438364       229.6196 
 121   0.0000       8.438364       229.6196 
 122   0.0000       8.468772       230.4470 
 123   0.0000       8.468772       230.4470 
 124   0.0000       8.553723       232.7586 
 125   0.0000      13.085274       356.0684 

                 SPIN DOWN ORBITALS
  NO   OCC          E(Eh)            E(eV) 
   0   1.0000      -7.687393      -209.1846 
   1   1.0000      -0.493337       -13.4244 
   2   1.0000      -0.446667       -12.1544 
   3   0.0000       0.026946         0.7332 
   4   0.0000       0.026946         0.7332 
   5   0.0000       0.042367         1.1529 
   6   0.0000       0.053606         1.4587 
   7   0.0000       0.079150         2.1538 
   8   0.0000       0.083896         2.2829 
   9   0.0000       0.083896         2.2829 
  10   0.0000       0.115188         3.1344 
  11   0.0000       0.142788         3.8855 
  12   0.0000       0.142788         3.8855 
  13   0.0000       0.145527         3.9600 
  14   0.0000       0.145527         3.9600 
  15   0.0000       0.182364         4.9624 
  16   0.0000       0.216113         5.8807 
  17   0.0000       0.216113         5.8807 
  18   0.0000       0.262772         7.1504 
  19   0.0000       0.319776         8.7015 
  20   0.0000       0.319776         8.7015 
  21   0.0000       0.352248         9.5852 
  22   0.0000       0.360189         9.8012 
  23   0.0000       0.429396        11.6845 
  24   0.0000       0.461518        12.5585 
  25   0.0000       0.461518        12.5585 
  26   0.0000       0.465915        12.6782 
  27   0.0000       0.465915        12.6782 
  28   0.0000       0.477186        12.9849 
  29   0.0000       0.477186        12.9849 
  30   0.0000       0.501140        13.6367 
  31   0.0000       0.501140        13.6367 
  32   0.0000       0.517209        14.0740 
  33   0.0000       0.529703        14.4139 
  34   0.0000       0.529703        14.4139 
  35   0.0000       0.580009        15.7828 
  36   0.0000       0.630871        17.1669 
  37   0.0000       0.630871        17.1669 
  38   0.0000       0.704867        19.1804 
  39   0.0000       0.704867        19.1804 
  40   0.0000       0.784848        21.3568 
  41   0.0000       0.784848        21.3568 
  42   0.0000       0.801617        21.8131 
  43   0.0000       0.913561        24.8593 
  44   0.0000       1.061352        28.8809 
  45   0.0000       1.061352        28.8809 
  46   0.0000       1.126756        30.6606 
  47   0.0000       1.369326        37.2613 
  48   0.0000       1.369326        37.2613 
  49   0.0000       1.383950        37.6592 
  50   0.0000       1.383950        37.6592 
  51   0.0000       1.384105        37.6634 
  52   0.0000       1.384105        37.6634 
  53   0.0000       1.391503        37.8647 
  54   0.0000       1.391503        37.8647 
  55   0.0000       1.392221        37.8843 
  56   0.0000       1.415550        38.5191 
  57   0.0000       1.415550        38.5191 
  58   0.0000       1.436027        39.0763 
  59   0.0000       1.439135        39.1609 
  60   0.0000       1.439135        39.1609 
  61   0.0000       1.450241        39.4631 
  62   0.0000       1.450241        39.4631 
  63   0.0000       1.459707        39.7206 
  64   0.0000       1.459707        39.7206 
  65   0.0000       1.486519        40.4502 
  66   0.0000       1.499102        40.7926 
  67   0.0000       1.499102        40.7926 
  68   0.0000       1.564649        42.5763 
  69   0.0000       1.564649        42.5763 
  70   0.0000       1.581601        43.0376 
  71   0.0000       1.581601        43.0376 
  72   0.0000       1.585708        43.1493 
  73   0.0000       1.619897        44.0796 
  74   0.0000       1.663840        45.2754 
  75   0.0000       1.663840        45.2754 
  76   0.0000       1.830179        49.8017 
  77   0.0000       2.458952        66.9115 
  78   0.0000       2.458952        66.9115 
  79   0.0000       2.503418        68.1215 
  80   0.0000       2.503418        68.1215 
  81   0.0000       2.577390        70.1343 
  82   0.0000       2.577390        70.1343 
  83   0.0000       2.606629        70.9300 
  84   0.0000       2.678464        72.8847 
  85   0.0000       3.744645       101.8970 
  86   0.0000       3.744645       101.8970 
  87   0.0000       3.812980       103.7565 
  88   0.0000       3.919734       106.6614 
  89   0.0000       3.919734       106.6614 
  90   0.0000       3.945006       107.3491 
  91   0.0000       3.945006       107.3491 
  92   0.0000       3.959811       107.7519 
  93   0.0000       3.959811       107.7519 
  94   0.0000       3.965096       107.8957 
  95   0.0000       3.965096       107.8957 
  96   0.0000       3.989899       108.5707 
  97   0.0000       3.989899       108.5707 
  98   0.0000       4.002610       108.9166 
  99   0.0000       4.004083       108.9566 
 100   0.0000       4.004083       108.9566 
 101   0.0000       4.088060       111.2418 
 102   0.0000       4.088060       111.2418 
 103   0.0000       4.109338       111.8208 
 104   0.0000       4.122230       112.1716 
 105   0.0000       4.122230       112.1716 
 106   0.0000       4.161477       113.2396 
 107   0.0000       4.161477       113.2396 
 108   0.0000       4.217528       114.7648 
 109   0.0000       6.557784       178.4464 
 110   0.0000       6.557784       178.4464 
 111   0.0000       6.560370       178.5167 
 112   0.0000       6.560370       178.5167 
 113   0.0000       6.574804       178.9095 
 114   0.0000       6.574804       178.9095 
 115   0.0000       6.599945       179.5936 
 116   0.0000       7.457181       202.9202 
 117   0.0000       7.946969       216.2480 
 118   0.0000       7.946969       216.2480 
 119   0.0000       7.993014       217.5010 
 120   0.0000       8.396195       228.4721 
 121   0.0000       8.396195       228.4721 
 122   0.0000       8.426827       229.3056 
 123   0.0000       8.426827       229.3056 
 124   0.0000       8.512252       231.6302 
 125   0.0000      13.096682       356.3788 

                    ********************************
                    * MULLIKEN POPULATION ANALYSIS *
                    ********************************

--------------------------------------------
MULLIKEN ATOMIC CHARGES AND SPIN POPULATIONS
--------------------------------------------
   0 B :    0.002017    1.000233
   1 H :   -0.002017   -1.000233
Sum of atomic charges         :    0.0000000
Sum of atomic spin populations:    0.0000000

-----------------------------------------------------
MULLIKEN REDUCED ORBITAL CHARGES AND SPIN POPULATIONS
-----------------------------------------------------
CHARGE
  0 B s       :     3.994163  s :     3.994163
      pz      :     0.000000  p :     0.999120
      px      :     0.999120
      py      :     0.000000
      dz2     :     0.001196  d :     0.004784
      dxz     :     0.000000
      dyz     :     0.000000
      dx2y2   :     0.003588
      dxy     :     0.000000
      f0      :     0.000000  f :    -0.000084
      f+1     :    -0.000031
      f-1     :     0.000000
      f+2     :     0.000000
      f-2     :     0.000000
      f+3     :    -0.000052
      f-3     :     0.000000
      g0      :     0.000000  g :     0.000001
      g+1     :     0.000000
      g-1     :     0.000000
      g+2     :     0.000000
      g-2     :     0.000000
      g+3     :     0.000000
      g-3     :     0.000000
      g+4     :     0.000000
      g-4     :     0.000000
  1 H s       :     1.001894  s :     1.001894
      pz      :     0.000000  p :    -0.000026
      px      :    -0.000026
      py      :     0.000000
      dz2     :     0.000032  d :     0.000127
      dxz     :     0.000000
      dyz     :     0.000000
      dx2y2   :     0.000096
      dxy     :     0.000000
      f0      :     0.000000  f :     0.000021
      f+1     :     0.000008
      f-1     :     0.000000
      f+2     :     0.000000
      f-2     :     0.000000
      f+3     :     0.000013
      f-3     :     0.000000

SPIN
  0 B s       :    -0.000661  s :    -0.000661
      pz      :     0.000000  p :     0.999349
      px      :     0.999349
      py      :     0.000000
      dz2     :     0.000353  d :     0.001413
      dxz     :     0.000000
      dyz     :    -0.000000
      dx2y2   :     0.001060
      dxy     :     0.000000
      f0      :     0.000000  f :     0.000132
      f+1     :     0.000050
      f-1     :    -0.000000
      f+2     :     0.000000
      f-2     :     0.000000
      f+3     :     0.000083
      f-3     :     0.000000
      g0      :    -0.000000  g :    -0.000001
      g+1     :     0.000000
      g-1     :     0.000000
      g+2     :    -0.000000
      g-2     :    -0.000000
      g+3     :    -0.000000
      g-3     :     0.000000
      g+4     :    -0.000000
      g-4     :    -0.000000
  1 H s       :    -0.999924  s :    -0.999924
      pz      :     0.000000  p :    -0.000404
      px      :    -0.000404
      py      :     0.000000
      dz2     :     0.000020  d :     0.000081
      dxz     :    -0.000000
      dyz     :    -0.000000
      dx2y2   :     0.000060
      dxy     :     0.000000
      f0      :     0.000000  f :     0.000015
      f+1     :     0.000005
      f-1     :     0.000000
      f+2     :     0.000000
      f-2     :     0.000000
      f+3     :     0.000009
      f-3     :     0.000000


                     *******************************
                     * LOEWDIN POPULATION ANALYSIS *
                     *******************************

-------------------------------------------
LOEWDIN ATOMIC CHARGES AND SPIN POPULATIONS
-------------------------------------------
   0 B :   -0.012481    0.942203
   1 H :    0.012481   -0.942203

----------------------------------------------------
LOEWDIN REDUCED ORBITAL CHARGES AND SPIN POPULATIONS
----------------------------------------------------
CHARGE
  0 B s       :     3.984888  s :     3.984888
      pz      :     0.000000  p :     0.998595
      px      :     0.998595
      py      :     0.000000
      dz2     :     0.006113  d :     0.024451
      dxz     :     0.000000
      dyz     :     0.000000
      dx2y2   :     0.018338
      dxy     :     0.000000
      f0      :     0.000000  f :     0.004459
      f+1     :     0.001672
      f-1     :     0.000000
      f+2     :     0.000000
      f-2     :     0.000000
      f+3     :     0.002787
      f-3     :     0.000000
      g0      :     0.000012  g :     0.000088
      g+1     :     0.000000
      g-1     :     0.000000
      g+2     :     0.000027
      g-2     :     0.000000
      g+3     :     0.000000
      g-3     :     0.000000
      g+4     :     0.000048
      g-4     :     0.000000
  1 H s       :     0.969480  s :     0.969480
      pz      :     0.000000  p :     0.014801
      px      :     0.014801
      py      :     0.000000
      dz2     :     0.000755  d :     0.003020
      dxz     :     0.000000
      dyz     :     0.000000
      dx2y2   :     0.002265
      dxy     :     0.000000
      f0      :     0.000000  f :     0.000218
      f+1     :     0.000082
      f-1     :     0.000000
      f+2     :     0.000000
      f-2     :     0.000000
      f+3     :     0.000136
      f-3     :     0.000000

SPIN
  0 B s       :    -0.003266  s :    -0.003266
      pz      :     0.000000  p :     0.968473
      px      :     0.968473
      py      :     0.000000
      dz2     :    -0.004627  d :    -0.018509
      dxz     :     0.000000
      dyz     :    -0.000000
      dx2y2   :    -0.013882
      dxy     :     0.000000
      f0      :     0.000000  f :    -0.004416
      f+1     :    -0.001656
      f-1     :    -0.000000
      f+2     :     0.000000
      f-2     :    -0.000000
      f+3     :    -0.002760
      f-3     :     0.000000
      g0      :    -0.000011  g :    -0.000079
      g+1     :     0.000000
      g-1     :     0.000000
      g+2     :    -0.000025
      g-2     :    -0.000000
      g+3     :    -0.000000
      g-3     :     0.000000
      g+4     :    -0.000043
      g-4     :    -0.000000
  1 H s       :    -0.952896  s :    -0.952896
      pz      :     0.000000  p :     0.008399
      px      :     0.008399
      py      :     0.000000
      dz2     :     0.000533  d :     0.002133
      dxz     :    -0.000000
      dyz     :    -0.000000
      dx2y2   :     0.001599
      dxy     :     0.000000
      f0      :     0.000000  f :     0.000160
      f+1     :     0.000060
      f-1     :    -0.000000
      f+2     :     0.000000
      f-2     :     0.000000
      f+3     :     0.000100
      f-3     :     0.000000


                      *****************************
                      * MAYER POPULATION ANALYSIS *
                      *****************************

  NA   - Mulliken gross atomic population
  ZA   - Total nuclear charge
  QA   - Mulliken gross atomic charge
  VA   - Mayer's total valence
  BVA  - Mayer's bonded valence
  FA   - Mayer's free valence

  ATOM       NA         ZA         QA         VA         BVA        FA
  0 B      4.9980     5.0000     0.0020     1.0215     0.0005     1.0209
  1 H      1.0020     1.0000    -0.0020     1.0003     0.0005     0.9998

  Mayer bond orders larger than 0.100000


-------
TIMINGS
-------

Total SCF time: 0 days 0 hours 0 min 0 sec 

Total time                  ....       0.372 sec
Sum of individual times     ....       0.224 sec  ( 60.2%)

Fock matrix formation       ....       0.197 sec  ( 53.0%)
Diagonalization             ....       0.010 sec  (  2.7%)
Density matrix formation    ....       0.000 sec  (  0.1%)
Population analysis         ....       0.006 sec  (  1.6%)
Initial guess               ....       0.006 sec  (  1.7%)
Orbital Transformation      ....       0.000 sec  (  0.0%)
Orbital Orthonormalization  ....       0.003 sec  (  0.8%)
DIIS solution               ....       0.004 sec  (  1.1%)

Maximum memory used throughout the entire SCF-calculation: 228.6 MB
[cnode12:273538] 7 more processes have sent help message help-mpi-btl-openib.txt / error in device init
[cnode12:273538] Set MCA parameter "orte_base_help_aggregate" to 0 to see all help / error messages
--------------------------------------------------------------------------
WARNING: There was an error initializing an OpenFabrics device.

  Local host:   cnode12
  Local device: mlx5_0
--------------------------------------------------------------------------


           ************************************************************
           *        Program running with 8 parallel MPI-processes     *
           *              working on a common directory               *
           ************************************************************

------------------------------------------------------------------------------
                                ORCA  MP2 
------------------------------------------------------------------------------

Freezing NCore=2 chemical core electrons

----------
MP2 ENERGY (disk based algorithm)
----------

Dimension of the basis                    ...  126
Memory devoted to MP2                     ...  256 MB   
Data format for buffers                   ... DOUBLE
Compression type for matrix containers    ... UNCOMPRESSED

-------------------------------
PARTIAL EXCHANGE TRANSFORMATION
-------------------------------

Transformation type                        ... two-operators
Generation of integrals (i,mue|j,nue)      ... ON
Generation of integrals (mue,kappa|nue,tau)... OFF
Generation of integrals (i,mue|a,nue)      ... OFF
Dimension of the basis                     ...  126
Number of internal alpha-MOs               ...    2 (   1-   2)
Number of internal beta-MOs                ...    2 (   1-   2)
Pair cutoff                                ... 1.000e-14 Eh
Number of AO pairs in the trafo            ... 8001
Total Number of distinct AO pairs          ... 8001
Memory devoted for trafo                   ...  256.0 MB 
Max. Number of MO pairs treated together   ... 2113      
Number Format for Storage                  ... Double (8 Byte)
Integral package used                      ... LIBINT

Starting integral evaluation:
    ... done with AO integral generation
Closing buffer AOK[aa] ( 0.00 GB; CompressionRatio= 0.70)
Closing buffer AOK[bb] ( 0.00 GB; CompressionRatio= 0.70)
Closing buffer AOK[ab] ( 0.00 GB; CompressionRatio= 0.71)
Closing buffer AOK[ba] ( 0.00 GB; CompressionRatio= 0.70)
Collecting buffer AOK 
Number of alpha/alpha MO pairs in trafo    ...    3
Number of beta /beta  MO pairs in trafo    ...    3
Number of alpha/ beta MO pairs in trafo    ...    4
------------------------
SORTING OF (i,mue|j,nue)
------------------------

SORTING OF ALPHA/ALPHA PAIRS
IBATCH = 1 of  1
Closing buffer KAO[aa] ( 0.00 GB; CompressionRatio= 1.00)
Collecting buffer KAO 
SORTING OF BETA /BETA  PAIRS
IBATCH = 1 of  1
Closing buffer KAO[bb] ( 0.00 GB; CompressionRatio= 1.00)
Collecting buffer KAO 
SORTING OF ALPHA/BETA  PAIRS
IBATCH = 1 of  1
Closing buffer KAO[ab] ( 0.00 GB; CompressionRatio= 0.999905526689)
Collecting buffer KAO[ab] 
N(AO-Batches) Done                         ...     60217 
N(AO-Batches) Skipped                      ...      4381 
N(IJ)-pairs Skipped                        ...         0 
TOTAL TIME for half transformation         ...     0.796 sec
AO-integral generation                     ...     0.322 sec
Half transformation                        ...     0.034 sec
K-integral sorting                         ...     0.036 sec

Finished integral transformation - now doing MP2 part

OPERATOR COMBINATION   0   0: ij=(  1..  2,  1..  2)
OPERATOR COMBINATION   0   1: ij=(  1..  2,  1..  2)
OPERATOR COMBINATION   1   1: ij=(  1..  2,  1..  2)

Correlation energy components
 E2 and T2 for alpha/alpha pairs :     -0.003432191 Eh 
 E2 and T2 for beta/beta   pairs :     -0.000066784 Eh 
 E2 and T2 for alpha/beta  pairs :     -0.044107126 Eh 

-----------------------------------------------
 MP2 CORRELATION ENERGY   :     -0.047606101 Eh
-----------------------------------------------


-------
TIMINGS
-------
Total time                :    0.898 sec
Integral trafo            :    0.799 sec ( 89.0%)
K(i,j)                    :    0.000 sec (  0.0%)
T(i,j)                    :    0.000 sec (  0.0%)

---------------------------------------
MP2 TOTAL ENERGY:      -25.080672467 Eh
---------------------------------------

Maximum memory used throughout the entire MP2-calculation: 78.7 MB
[cnode12:273598] 7 more processes have sent help message help-mpi-btl-openib.txt / error in device init
[cnode12:273598] Set MCA parameter "orte_base_help_aggregate" to 0 to see all help / error messages

-------------------------   --------------------
FINAL SINGLE POINT ENERGY       -25.080672466622
-------------------------   --------------------


                            ***************************************
                            *     ORCA property calculations      *
                            ***************************************


  WARNING: The energy has been calculated at the MP2 level but the densities
           used in the property calculations are still SCF densities
           MP2 response densities have not been calculated 
           use %mp2 Density relaxed end
           or  %mp2 Density unrelaxed end

                                    ---------------------
                                    Active property flags
                                    ---------------------
   (+) Dipole Moment


------------------------------------------------------------------------------
                       ORCA ELECTRIC PROPERTIES CALCULATION
------------------------------------------------------------------------------

Dipole Moment Calculation                       ... on
Quadrupole Moment Calculation                   ... off
Polarizability Calculation                      ... off
GBWName                                         ... /scratch/BH-3.8-UMP2-O_645/BH-3.8-UMP2-O.gbw
Electron density file                           ... /scratch/BH-3.8-UMP2-O_645/BH-3.8-UMP2-O.scfp
The origin for moment calculation is the CENTER OF MASS  = ( 0.612490,  0.000000  0.000000)

-------------
DIPOLE MOMENT
-------------
                                X             Y             Z
Electronic contribution:     -3.52927      -0.00000       0.00000
Nuclear contribution   :      3.50602       0.00000       0.00000
                        -----------------------------------------
Total Dipole Moment    :     -0.02325      -0.00000       0.00000
                        -----------------------------------------
Magnitude (a.u.)       :      0.02325
Magnitude (Debye)      :      0.05910



--------------------
Rotational spectrum 
--------------------
 
Rotational constants in cm-1:     0.000000     1.266157     1.266157 
Rotational constants in MHz :     0.000000 37958.423798 37958.423798 

 Dipole components along the rotational axes: 
x,y,z [a.u.] :    -0.023250    -0.000000     0.000000 
x,y,z [Debye]:    -0.059096    -0.000000     0.000000 

 
--------------------------------------------------------------------------
WARNING: There was an error initializing an OpenFabrics device.

  Local host:   cnode12
  Local device: mlx5_0
--------------------------------------------------------------------------
[cnode12:273658] 7 more processes have sent help message help-mpi-btl-openib.txt / error in device init
[cnode12:273658] Set MCA parameter "orte_base_help_aggregate" to 0 to see all help / error messages

Timings for individual modules:

Sum of individual times         ...        2.502 sec (=   0.042 min)
GTO integral calculation        ...        0.480 sec (=   0.008 min)  19.2 %
SCF iterations                  ...        0.738 sec (=   0.012 min)  29.5 %
MP2 module                      ...        1.284 sec (=   0.021 min)  51.3 %
                             ****ORCA TERMINATED NORMALLY****
TOTAL RUN TIME: 0 days 0 hours 0 minutes 2 seconds 946 msec

Sender: Unischeduler System <lcz@mgt01>
Subject: Job 133937: <#!/bin/bash
#BSUB -J intel
#BSUB -o BH-3.8-UMP2-O.out
#BSUB -n 8
#BSUB -q cqueue
export LD_LIBRARY_PATH=/apps/software/openmpi-4.1.1/lib:/apps/software/orca_5_0_0:$LD_LIBRARY_PATH
export PATH=/apps/software/openmpi-4.1.1/bin:/apps/software/orca_5_0_0:$PATH
mkdir /scratch/BH-3.8-UMP2-O_645
scp $USER@mgt01:/apps/users/lcz/exe13/UMP2/BH-3.8-UMP2-O.inp /scratch/BH-3.8-UMP2-O_645
scp $USER@mgt01:/apps/users/lcz/exe13/UMP2/BH-3.8-UHF-O.gbw /scratch/BH-3.8-UMP2-O_645
/apps/software/orca_5_0_0/orca /scratch/BH-3.8-UMP2-O_645/BH-3.8-UMP2-O.inp >& BH-3.8-UMP2-O.out
scp /scratch/BH-3.8-UMP2-O_645/*.gbw $USER@mgt01:/apps/users/lcz/exe13/UMP2
scp /scratch/BH-3.8-UMP2-O_645/*.xyz $USER@mgt01:/apps/users/lcz/exe13/UMP2
scp /scratch/BH-3.8-UMP2-O_645/*.trj $USER@mgt01:/apps/users/lcz/exe13/UMP2> Exited

Job <#!/bin/bash
#BSUB -J intel
#BSUB -o BH-3.8-UMP2-O.out
#BSUB -n 8
#BSUB -q cqueue
export LD_LIBRARY_PATH=/apps/software/openmpi-4.1.1/lib:/apps/software/orca_5_0_0:$LD_LIBRARY_PATH
export PATH=/apps/software/openmpi-4.1.1/bin:/apps/software/orca_5_0_0:$PATH
mkdir /scratch/BH-3.8-UMP2-O_645
scp $USER@mgt01:/apps/users/lcz/exe13/UMP2/BH-3.8-UMP2-O.inp /scratch/BH-3.8-UMP2-O_645
scp $USER@mgt01:/apps/users/lcz/exe13/UMP2/BH-3.8-UHF-O.gbw /scratch/BH-3.8-UMP2-O_645
/apps/software/orca_5_0_0/orca /scratch/BH-3.8-UMP2-O_645/BH-3.8-UMP2-O.inp >& BH-3.8-UMP2-O.out
scp /scratch/BH-3.8-UMP2-O_645/*.gbw $USER@mgt01:/apps/users/lcz/exe13/UMP2
scp /scratch/BH-3.8-UMP2-O_645/*.xyz $USER@mgt01:/apps/users/lcz/exe13/UMP2
scp /scratch/BH-3.8-UMP2-O_645/*.trj $USER@mgt01:/apps/users/lcz/exe13/UMP2> was submitted from host <mgt01> by user <lcz>.
Job was executed on host(s) <8*cnode12>, in queue <cqueue>, as user <lcz>.
</apps/users/lcz> was used as the home directory.
</apps/users/lcz/exe13/UMP2> was used as the working directory.
Started at 2022-05-22 11:54:11
Results reported at 2022-05-22 11:54:15

Your job looked like:

------------------------------------------------------------
# User input
#!/bin/bash
#BSUB -J intel
#BSUB -o BH-3.8-UMP2-O.out
#BSUB -n 8
#BSUB -q cqueue
export LD_LIBRARY_PATH=/apps/software/openmpi-4.1.1/lib:/apps/software/orca_5_0_0:$LD_LIBRARY_PATH
export PATH=/apps/software/openmpi-4.1.1/bin:/apps/software/orca_5_0_0:$PATH
mkdir /scratch/BH-3.8-UMP2-O_645
scp $USER@mgt01:/apps/users/lcz/exe13/UMP2/BH-3.8-UMP2-O.inp /scratch/BH-3.8-UMP2-O_645
scp $USER@mgt01:/apps/users/lcz/exe13/UMP2/BH-3.8-UHF-O.gbw /scratch/BH-3.8-UMP2-O_645
/apps/software/orca_5_0_0/orca /scratch/BH-3.8-UMP2-O_645/BH-3.8-UMP2-O.inp >& BH-3.8-UMP2-O.out
scp /scratch/BH-3.8-UMP2-O_645/*.gbw $USER@mgt01:/apps/users/lcz/exe13/UMP2
scp /scratch/BH-3.8-UMP2-O_645/*.xyz $USER@mgt01:/apps/users/lcz/exe13/UMP2
scp /scratch/BH-3.8-UMP2-O_645/*.trj $USER@mgt01:/apps/users/lcz/exe13/UMP2
------------------------------------------------------------

Exited with exit code 1.

Resource usage summary:

    CPU time   :            0.01 sec.
    Max Memory :                 9 MB
    Max Processes  :               2


The output (if any) follows:

/scratch/BH-3.8-UMP2-O_645/*.xyz: No such file or directory
/scratch/BH-3.8-UMP2-O_645/*.trj: No such file or directory
