
                                        *****************
                                        * O   R   C   A *
                                        *****************

                                            #,                                       
                                            ###                                      
                                            ####                                     
                                            #####                                    
                                            ######                                   
                                           ########,                                 
                                     ,,################,,,,,                         
                               ,,#################################,,                 
                          ,,##########################################,,             
                       ,#########################################, ''#####,          
                    ,#############################################,,   '####,        
                  ,##################################################,,,,####,       
                ,###########''''           ''''###############################       
              ,#####''   ,,,,##########,,,,          '''####'''          '####       
            ,##' ,,,,###########################,,,                        '##       
           ' ,,###''''                  '''############,,,                           
         ,,##''                                '''############,,,,        ,,,,,,###''
      ,#''                                            '''#######################'''  
     '                                                          ''''####''''         
             ,#######,   #######,   ,#######,      ##                                
            ,#'     '#,  ##    ##  ,#'     '#,    #''#        ######   ,####,        
            ##       ##  ##   ,#'  ##            #'  '#       #        #'  '#        
            ##       ##  #######   ##           ,######,      #####,   #    #        
            '#,     ,#'  ##    ##  '#,     ,#' ,#      #,         ##   #,  ,#        
             '#######'   ##     ##  '#######'  #'      '#     #####' # '####'        



                  #######################################################
                  #                        -***-                        #
                  #          Department of theory and spectroscopy      #
                  #    Directorship and core code : Frank Neese         #
                  #        Max Planck Institute fuer Kohlenforschung    #
                  #                Kaiser Wilhelm Platz 1               #
                  #                 D-45470 Muelheim/Ruhr               #
                  #                      Germany                        #
                  #                                                     #
                  #                  All rights reserved                #
                  #                        -***-                        #
                  #######################################################


                         Program Version 5.0.0 -  RELEASE  -
                                (SVN: $Rev: 19529$)
                ($Date: 2021-06-28 11:36:33 +0200 (Mo, 28 Jun 2021) $)


 With contributions from (in alphabetic order):
   Daniel Aravena         : Magnetic Suceptibility
   Michael Atanasov       : Ab Initio Ligand Field Theory (pilot matlab implementation)
   Alexander A. Auer      : GIAO ZORA, VPT2 properties, NMR spectrum
   Ute Becker             : Parallelization
   Giovanni Bistoni       : ED, misc. LED, open-shell LED, HFLD
   Martin Brehm           : Molecular dynamics
   Dmytro Bykov           : SCF Hessian
   Vijay G. Chilkuri      : MRCI spin determinant printing, contributions to CSF-ICE
   Dipayan Datta          : RHF DLPNO-CCSD density
   Achintya Kumar Dutta   : EOM-CC, STEOM-CC
   Dmitry Ganyushin       : Spin-Orbit,Spin-Spin,Magnetic field MRCI
   Miquel Garcia          : C-PCM Hessian, Gaussian charge scheme
   Yang Guo               : DLPNO-NEVPT2, F12-NEVPT2, CIM, IAO-localization
   Andreas Hansen         : Spin unrestricted coupled pair/coupled cluster methods
   Benjamin Helmich-Paris : MC-RPA, TRAH-SCF, COSX integrals
   Lee Huntington         : MR-EOM, pCC
   Robert Izsak           : Overlap fitted RIJCOSX, COSX-SCS-MP3, EOM
   Marcus Kettner         : VPT2
   Christian Kollmar      : KDIIS, OOCD, Brueckner-CCSD(T), CCSD density, CASPT2, CASPT2-K
   Simone Kossmann        : Meta GGA functionals, TD-DFT gradient, OOMP2, MP2 Hessian
   Martin Krupicka        : Initial AUTO-CI
   Lucas Lang             : DCDCAS
   Marvin Lechner         : AUTO-CI (C++ implementation), FIC-MRCC
   Dagmar Lenk            : GEPOL surface, SMD
   Dimitrios Liakos       : Extrapolation schemes; Compound Job, initial MDCI parallelization
   Dimitrios Manganas     : Further ROCIS development; embedding schemes
   Dimitrios Pantazis     : SARC Basis sets
   Anastasios Papadopoulos: AUTO-CI, single reference methods and gradients
   Taras Petrenko         : DFT Hessian,TD-DFT gradient, ASA, ECA, R-Raman, ABS, FL, XAS/XES, NRVS
   Peter Pinski           : DLPNO-MP2, DLPNO-MP2 Gradient
   Christoph Reimann      : Effective Core Potentials
   Marius Retegan         : Local ZFS, SOC
   Christoph Riplinger    : Optimizer, TS searches, QM/MM, DLPNO-CCSD(T), (RO)-DLPNO pert. Triples
   Tobias Risthaus        : Range-separated hybrids, TD-DFT gradient, RPA, STAB
   Michael Roemelt        : Original ROCIS implementation
   Masaaki Saitow         : Open-shell DLPNO-CCSD energy and density
   Barbara Sandhoefer     : DKH picture change effects
   Avijit Sen             : IP-ROCIS
   Kantharuban Sivalingam : CASSCF convergence, NEVPT2, FIC-MRCI
   Bernardo de Souza      : ESD, SOC TD-DFT
   Georgi Stoychev        : AutoAux, RI-MP2 NMR
   Willem Van den Heuvel  : Paramagnetic NMR
   Boris Wezisla          : Elementary symmetry handling
   Frank Wennmohs         : Technical directorship


 We gratefully acknowledge several colleagues who have allowed us to
 interface, adapt or use parts of their codes:
   Stefan Grimme, W. Hujo, H. Kruse, P. Pracht,  : VdW corrections, initial TS optimization,
                  C. Bannwarth, S. Ehlert          DFT functionals, gCP, sTDA/sTD-DF
   Ed Valeev, F. Pavosevic, A. Kumar             : LibInt (2-el integral package), F12 methods
   Garnet Chan, S. Sharma, J. Yang, R. Olivares  : DMRG
   Ulf Ekstrom                                   : XCFun DFT Library
   Mihaly Kallay                                 : mrcc  (arbitrary order and MRCC methods)
   Jiri Pittner, Ondrej Demel                    : Mk-CCSD
   Frank Weinhold                                : gennbo (NPA and NBO analysis)
   Christopher J. Cramer and Donald G. Truhlar   : smd solvation model
   Lars Goerigk                                  : TD-DFT with DH, B97 family of functionals
   V. Asgeirsson, H. Jonsson                     : NEB implementation
   FAccTs GmbH                                   : IRC, NEB, NEB-TS, DLPNO-Multilevel, CI-OPT
                                                   MM, QMMM, 2- and 3-layer-ONIOM, Crystal-QMMM,
                                                   LR-CPCM, SF, NACMEs, symmetry and pop. for TD-DFT,
                                                   nearIR, NL-DFT gradient (VV10), updates on ESD,
                                                   ML-optimized integration grids
   S Lehtola, MJT Oliveira, MAL Marques          : LibXC Library
   Liviu Ungur et al                             : ANISO software


 Your calculation uses the libint2 library for the computation of 2-el integrals
 For citations please refer to: http://libint.valeyev.net

 Your ORCA version has been built with support for libXC version: 5.1.0
 For citations please refer to: https://tddft.org/programs/libxc/

 This ORCA versions uses:
   CBLAS   interface :  Fast vector & matrix operations
   LAPACKE interface :  Fast linear algebra routines
   SCALAPACK package :  Parallel linear algebra routines
   Shared memory     :  Shared parallel matrices
   BLAS/LAPACK       :  OpenBLAS 0.3.15  USE64BITINT DYNAMIC_ARCH NO_AFFINITY SkylakeX SINGLE_THREADED
        Core in use  :  SkylakeX
   Copyright (c) 2011-2014, The OpenBLAS Project


================================================================================

----- Orbital basis set information -----
Your calculation utilizes the basis: aug-cc-pVQZ 
    H, B-Ne : Obtained from the ccRepo (grant-hill.group.shef.ac.uk/ccrepo) Feb. 2017
              R. A. Kendall, T. H. Dunning, Jr., R. J. Harrison, J. Chem. Phys. 96, 6796 (1992)
         He : Obtained from the ccRepo (grant-hill.group.shef.ac.uk/ccrepo) Feb. 2017
              D. E. Woon, T. H. Dunning, Jr., J. Chem. Phys. 100, 2975 (1994)
  Li-Be, Na : Obtained from the ccRepo (grant-hill.group.shef.ac.uk/ccrepo) Feb. 2017
              B. P. Prascher, D. E. Woon, K. A. Peterson, T. H. Dunning, Jr., A. K. Wilson, Theor. Chem. Acc. 128, 69 (2011)
         Mg : Obtained from the Peterson Research Group Website (tyr0.chem.wsu.edu/~kipeters) Feb. 2017
              B. P. Prascher, D. E. Woon, K. A. Peterson, T. H. Dunning, Jr., A. K. Wilson, Theor. Chem. Acc. 128, 69 (2011)
      Al-Ar : Obtained from the ccRepo (grant-hill.group.shef.ac.uk/ccrepo) Feb. 2017
              D. E. Woon, T. H. Dunning, Jr., J. Chem. Phys. 98, 1358 (1993)
      Sc-Zn : Obtained from the ccRepo (grant-hill.group.shef.ac.uk/ccrepo) Feb. 2017
              N. B. Balabanov, K. A. Peterson, J. Chem. Phys. 123, 064107 (2005)
              N. B. Balabanov, K. A. Peterson, J. Chem. Phys. 125, 074110 (2006)
      Ga-Kr : Obtained from the ccRepo (grant-hill.group.shef.ac.uk/ccrepo) Feb. 2017
              A. K. Wilson, D. E. Woon, K. A. Peterson, T. H. Dunning, Jr., J. Chem. Phys. 110, 7667 (1999)

================================================================================
                                        WARNINGS
                       Please study these warnings very carefully!
================================================================================


WARNING: No MP2 level density has been requested!
         To caclulate MP2 level properties use
         %mp2 Density relaxed end
         or
         %mp2 Density unrelaxed end

WARNING: Post HF methods need fully converged wavefunctions
  ===> : Setting SCFConvForced true
         You can overwrite this default with %scf ConvForced false 


INFO   : the flag for use of the SHARK integral package has been found!

================================================================================
                                       INPUT FILE
================================================================================
NAME = /scratch/BH-3.4-UMP2-O_338/BH-3.4-UMP2-O.inp
|  1> ! UHF MP2 aug-cc-pVQZ pal8 VeryTightSCF MOread
|  2> 
|  3> %moinp "BH-3.4-UHF-O.gbw"
|  4> 
|  5> *xyz 0 1
|  6>  B	0.0	0.0	0.0
|  7>  H	3.4	0.0	0.0
|  8> **                         ****END OF INPUT****
================================================================================

                       ****************************
                       * Single Point Calculation *
                       ****************************

---------------------------------
CARTESIAN COORDINATES (ANGSTROEM)
---------------------------------
  B      0.000000    0.000000    0.000000
  H      3.400000    0.000000    0.000000

----------------------------
CARTESIAN COORDINATES (A.U.)
----------------------------
  NO LB      ZA    FRAG     MASS         X           Y           Z
   0 B     5.0000    0    10.810    0.000000    0.000000    0.000000
   1 H     1.0000    0     1.008    6.425069    0.000000    0.000000

--------------------------------
INTERNAL COORDINATES (ANGSTROEM)
--------------------------------
 B      0   0   0     0.000000000000     0.00000000     0.00000000
 H      1   0   0     3.400000000000     0.00000000     0.00000000

---------------------------
INTERNAL COORDINATES (A.U.)
---------------------------
 B      0   0   0     0.000000000000     0.00000000     0.00000000
 H      1   0   0     6.425068855332     0.00000000     0.00000000

---------------------
BASIS SET INFORMATION
---------------------
There are 2 groups of distinct atoms

 Group   1 Type B   : 22s7p4d3f2g contracted to 6s5p4d3f2g pattern {991111/31111/1111/111/11}
 Group   2 Type H   : 7s4p3d2f contracted to 5s4p3d2f pattern {31111/1111/111/11}

Atom   0B    basis set group =>   1
Atom   1H    basis set group =>   2
--------------------------------------------------------------------------
WARNING: There was an error initializing an OpenFabrics device.

  Local host:   cnode10
  Local device: mlx5_0
--------------------------------------------------------------------------


           ************************************************************
           *        Program running with 8 parallel MPI-processes     *
           *              working on a common directory               *
           ************************************************************
------------------------------------------------------------------------------
                           ORCA GTO INTEGRAL CALCULATION
------------------------------------------------------------------------------
------------------------------------------------------------------------------
                   ___                                                        
                  /   \      - P O W E R E D   B Y -                         
                 /     \                                                     
                 |  |  |   _    _      __       _____    __    __             
                 |  |  |  | |  | |    /  \     |  _  \  |  |  /  |          
                  \  \/   | |  | |   /    \    | | | |  |  | /  /          
                 / \  \   | |__| |  /  /\  \   | |_| |  |  |/  /          
                |  |  |   |  __  | /  /__\  \  |    /   |      \           
                |  |  |   | |  | | |   __   |  |    \   |  |\   \          
                \     /   | |  | | |  |  |  |  | |\  \  |  | \   \       
                 \___/    |_|  |_| |__|  |__|  |_| \__\ |__|  \__/        
                                                                              
                      - O R C A' S   B I G   F R I E N D -                    
                                      &                                       
                       - I N T E G R A L  F E E D E R -                       
                                                                              
 v1 FN, 2020, v2 2021                                                         
------------------------------------------------------------------------------


Reading SHARK input file /scratch/BH-3.4-UMP2-O_338/BH-3.4-UMP2-O.SHARKINP.tmp ... ok
----------------------
SHARK INTEGRAL PACKAGE
----------------------

Number of atoms                             ...      2
Number of basis functions                   ...    126
Number of shells                            ...     34
Maximum angular momentum                    ...      4
Integral batch strategy                     ... SHARK/LIBINT Hybrid
RI-J (if used) integral strategy            ... SPLIT-RIJ (Revised 2003 algorithm where possible)
Printlevel                                  ...      1
Contraction scheme used                     ... SEGMENTED contraction
Coulomb Range Separation                    ... NOT USED
Exchange Range Separation                   ... NOT USED
Finite Nucleus Model                        ... NOT USED
Auxiliary Coulomb fitting basis             ... NOT available
Auxiliary J/K fitting basis                 ... NOT available
Auxiliary Correlation fitting basis         ... NOT available
Auxiliary 'external' fitting basis          ... NOT available
Integral threshold                          ...     1.000000e-12
Primitive cut-off                           ...     1.000000e-14
Primitive pair pre-selection threshold      ...     1.000000e-14

Calculating pre-screening integrals         ... done (  0.1 sec) Dimension = 34
Organizing shell pair data                  ... done (  0.0 sec)
Shell pair information
Total number of shell pairs                 ...       595
Shell pairs after pre-screening             ...       587
Total number of primitive shell pairs       ...      1563
Primitive shell pairs kept                  ...      1425
          la=0 lb=0:     64 shell pairs
          la=1 lb=0:     96 shell pairs
          la=1 lb=1:     44 shell pairs
          la=2 lb=0:     75 shell pairs
          la=2 lb=1:     63 shell pairs
          la=2 lb=2:     28 shell pairs
          la=3 lb=0:     55 shell pairs
          la=3 lb=1:     45 shell pairs
          la=3 lb=2:     35 shell pairs
          la=3 lb=3:     15 shell pairs
          la=4 lb=0:     22 shell pairs
          la=4 lb=1:     18 shell pairs
          la=4 lb=2:     14 shell pairs
          la=4 lb=3:     10 shell pairs
          la=4 lb=4:      3 shell pairs

Calculating one electron integrals          ... done (  0.0 sec)
Calculating Nuclear repulsion               ... done (  0.0 sec) ENN=      0.778201776912 Eh

SHARK setup successfully completed in   0.1 seconds

Maximum memory used throughout the entire GTOINT-calculation: 28.9 MB
[cnode10:255711] 7 more processes have sent help message help-mpi-btl-openib.txt / error in device init
[cnode10:255711] Set MCA parameter "orte_base_help_aggregate" to 0 to see all help / error messages
--------------------------------------------------------------------------
WARNING: There was an error initializing an OpenFabrics device.

  Local host:   cnode10
  Local device: mlx5_0
--------------------------------------------------------------------------


           ************************************************************
           *        Program running with 8 parallel MPI-processes     *
           *              working on a common directory               *
           ************************************************************
-------------------------------------------------------------------------------
                                 ORCA SCF
-------------------------------------------------------------------------------

------------
SCF SETTINGS
------------
Hamiltonian:
 Ab initio Hamiltonian  Method          .... Hartree-Fock(GTOs)


General Settings:
 Integral files         IntName         .... /scratch/BH-3.4-UMP2-O_338/BH-3.4-UMP2-O
 Hartree-Fock type      HFTyp           .... UHF
 Total Charge           Charge          ....    0
 Multiplicity           Mult            ....    1
 Number of Electrons    NEL             ....    6
 Basis Dimension        Dim             ....  126
 Nuclear Repulsion      ENuc            ....      0.7782017769 Eh

Convergence Acceleration:
 DIIS                   CNVDIIS         .... on
   Start iteration      DIISMaxIt       ....    12
   Startup error        DIISStart       ....  0.200000
   # of expansion vecs  DIISMaxEq       ....     5
   Bias factor          DIISBfac        ....   1.050
   Max. coefficient     DIISMaxC        ....  10.000
 Trust-Rad. Augm. Hess. CNVTRAH         .... auto
   Auto Start mean grad. ratio tolernc. ....  1.125000
   Auto Start start iteration           ....     1
   Auto Start num. interpolation iter.  ....    10
   Max. Number of Micro iterations      ....    16
   Max. Number of Macro iterations      .... Maxiter - #DIIS iter
   Number of Davidson start vectors     ....     2
   Converg. threshold I  (grad. norm)   ....   2.000e-06
   Converg. threshold II (energy diff.) ....   1.000e-09
   Grad. Scal. Fac. for Micro threshold ....   0.100
   Minimum threshold for Micro iter.    ....   0.010
   NR start threshold (gradient norm)   ....   0.001
   Initial trust radius                 ....   0.400
   Minimum AH scaling param. (alpha)    ....   1.000
   Maximum AH scaling param. (alpha)    .... 1000.000
   Orbital update algorithm             .... Taylor
   White noise on init. David. guess    .... on
   Maximum white noise                  ....   0.010
   Quad. conv. algorithm                .... NR
 SOSCF                  CNVSOSCF        .... off
 Level Shifting         CNVShift        .... on
   Level shift para.    LevelShift      ....    0.2500
   Turn off err/grad.   ShiftErr        ....    0.0010
 Zerner damping         CNVZerner       .... off
 Static damping         CNVDamp         .... on
   Fraction old density DampFac         ....    0.7000
   Max. Damping (<1)    DampMax         ....    0.9800
   Min. Damping (>=0)   DampMin         ....    0.0000
   Turn off err/grad.   DampErr         ....    0.1000
 Fernandez-Rico         CNVRico         .... off

SCF Procedure:
 Maximum # iterations   MaxIter         ....   125
 SCF integral mode      SCFMode         .... Direct
   Integral package                     .... SHARK and LIBINT hybrid scheme
 Reset frequency        DirectResetFreq ....    20
 Integral Threshold     Thresh          ....  1.000e-12 Eh
 Primitive CutOff       TCut            ....  1.000e-14 Eh

Convergence Tolerance:
 Convergence Check Mode ConvCheckMode   .... Total+1el-Energy
 Convergence forced     ConvForced      .... 1
 Energy Change          TolE            ....  1.000e-09 Eh
 1-El. energy change                    ....  1.000e-06 Eh
 DIIS Error             TolErr          ....  1.000e-08


Diagonalization of the overlap matrix:
Smallest eigenvalue                        ... 4.304e-03
Time for diagonalization                   ...    0.002 sec
Threshold for overlap eigenvalues          ... 1.000e-08
Number of eigenvalues below threshold      ... 0
Time for construction of square roots      ...    0.002 sec
Total time needed                          ...    0.004 sec

---------------------
INITIAL GUESS: MOREAD
---------------------
Guess MOs are being read from file: BH-3.4-UHF-O.gbw
Input Geometry matches current geometry (good)
Input basis set matches current basis set (good)
MOs were renormalized
MOs were reorthogonalized (Cholesky)
                      ------------------
                      INITIAL GUESS DONE (   0.0 sec)
                      ------------------
--------------
SCF ITERATIONS
--------------
ITER       Energy         Delta-E        Max-DP      RMS-DP      [F,P]     Damp
               ***  Starting incremental Fock matrix formation  ***
  0    -25.0333196972   0.000000000000 0.00000000  0.00000000  0.0000000 0.7000
                 **** Energy Check signals convergence ****

               *****************************************************
               *                     SUCCESS                       *
               *           SCF CONVERGED AFTER   1 CYCLES          *
               *****************************************************


----------------
TOTAL SCF ENERGY
----------------

Total Energy       :          -25.03331970 Eh            -681.19126 eV

Components:
Nuclear Repulsion  :            0.77820178 Eh              21.17595 eV
Electronic Energy  :          -25.81152147 Eh            -702.36721 eV
One Electron Energy:          -34.42643099 Eh            -936.79081 eV
Two Electron Energy:            8.61490951 Eh             234.42361 eV

Virial components:
Potential Energy   :          -50.06253852 Eh           -1362.27093 eV
Kinetic Energy     :           25.02921882 Eh             681.07967 eV
Virial Ratio       :            2.00016384


---------------
SCF CONVERGENCE
---------------

  Last Energy change         ...    1.5774e-12  Tolerance :   1.0000e-09
  Last MAX-Density change    ...    1.8856e-09  Tolerance :   1.0000e-08
  Last RMS-Density change    ...    3.5287e-11  Tolerance :   1.0000e-09
  Last DIIS Error            ...    9.9885e-09  Tolerance :   1.0000e-08

             **** THE GBW FILE WAS UPDATED (/scratch/BH-3.4-UMP2-O_338/BH-3.4-UMP2-O.gbw) ****
             **** DENSITY /scratch/BH-3.4-UMP2-O_338/BH-3.4-UMP2-O.scfp WAS UPDATED ****
             **** ENERGY FILE WAS UPDATED (/scratch/BH-3.4-UMP2-O_338/BH-3.4-UMP2-O.en.tmp) ****
----------------------
UHF SPIN CONTAMINATION
----------------------

Expectation value of <S**2>     :     0.994281
Ideal value S*(S+1) for S=0.0   :     0.000000
Deviation                       :     0.994281

             **** THE GBW FILE WAS UPDATED (/scratch/BH-3.4-UMP2-O_338/BH-3.4-UMP2-O.gbw) ****
             **** DENSITY /scratch/BH-3.4-UMP2-O_338/BH-3.4-UMP2-O.scfp WAS UPDATED ****
----------------
ORBITAL ENERGIES
----------------
                 SPIN UP ORBITALS
  NO   OCC          E(Eh)            E(eV) 
   0   1.0000      -7.689031      -209.2292 
   1   1.0000      -0.491299       -13.3689 
   2   1.0000      -0.446617       -12.1531 
   3   0.0000       0.026538         0.7221 
   4   0.0000       0.026538         0.7221 
   5   0.0000       0.041092         1.1182 
   6   0.0000       0.054511         1.4833 
   7   0.0000       0.081791         2.2257 
   8   0.0000       0.083345         2.2679 
   9   0.0000       0.083345         2.2679 
  10   0.0000       0.114723         3.1218 
  11   0.0000       0.143577         3.9069 
  12   0.0000       0.143577         3.9069 
  13   0.0000       0.145322         3.9544 
  14   0.0000       0.145322         3.9544 
  15   0.0000       0.186159         5.0657 
  16   0.0000       0.225505         6.1363 
  17   0.0000       0.225505         6.1363 
  18   0.0000       0.265914         7.2359 
  19   0.0000       0.320242         8.7142 
  20   0.0000       0.320242         8.7142 
  21   0.0000       0.356498         9.7008 
  22   0.0000       0.360219         9.8020 
  23   0.0000       0.451226        12.2785 
  24   0.0000       0.461186        12.5495 
  25   0.0000       0.461186        12.5495 
  26   0.0000       0.462983        12.5984 
  27   0.0000       0.462983        12.5984 
  28   0.0000       0.489438        13.3183 
  29   0.0000       0.489438        13.3183 
  30   0.0000       0.500768        13.6266 
  31   0.0000       0.500768        13.6266 
  32   0.0000       0.524820        14.2811 
  33   0.0000       0.528685        14.3862 
  34   0.0000       0.528685        14.3862 
  35   0.0000       0.589424        16.0390 
  36   0.0000       0.644841        17.5470 
  37   0.0000       0.644841        17.5470 
  38   0.0000       0.742186        20.1959 
  39   0.0000       0.742186        20.1959 
  40   0.0000       0.802597        21.8398 
  41   0.0000       0.802597        21.8398 
  42   0.0000       0.845145        22.9976 
  43   0.0000       0.941481        25.6190 
  44   0.0000       1.059544        28.8317 
  45   0.0000       1.059544        28.8317 
  46   0.0000       1.128553        30.7095 
  47   0.0000       1.365531        37.1580 
  48   0.0000       1.365531        37.1580 
  49   0.0000       1.368799        37.2469 
  50   0.0000       1.368799        37.2469 
  51   0.0000       1.377930        37.4954 
  52   0.0000       1.377930        37.4954 
  53   0.0000       1.379006        37.5247 
  54   0.0000       1.382764        37.6269 
  55   0.0000       1.382764        37.6269 
  56   0.0000       1.414655        38.4947 
  57   0.0000       1.414655        38.4947 
  58   0.0000       1.436997        39.1027 
  59   0.0000       1.438151        39.1341 
  60   0.0000       1.438151        39.1341 
  61   0.0000       1.451441        39.4957 
  62   0.0000       1.451441        39.4957 
  63   0.0000       1.461979        39.7825 
  64   0.0000       1.461979        39.7825 
  65   0.0000       1.505429        40.9648 
  66   0.0000       1.521940        41.4141 
  67   0.0000       1.521940        41.4141 
  68   0.0000       1.568222        42.6735 
  69   0.0000       1.568222        42.6735 
  70   0.0000       1.614465        43.9318 
  71   0.0000       1.614465        43.9318 
  72   0.0000       1.658408        45.1276 
  73   0.0000       1.686604        45.8948 
  74   0.0000       1.770491        48.1775 
  75   0.0000       1.770491        48.1775 
  76   0.0000       1.899092        51.6769 
  77   0.0000       2.467957        67.1565 
  78   0.0000       2.467957        67.1565 
  79   0.0000       2.543629        69.2157 
  80   0.0000       2.543629        69.2157 
  81   0.0000       2.588756        70.4436 
  82   0.0000       2.588756        70.4436 
  83   0.0000       2.672452        72.7211 
  84   0.0000       2.739997        74.5591 
  85   0.0000       3.743408       101.8633 
  86   0.0000       3.743408       101.8633 
  87   0.0000       3.832427       104.2857 
  88   0.0000       3.918857       106.6375 
  89   0.0000       3.918857       106.6375 
  90   0.0000       3.944090       107.3241 
  91   0.0000       3.944090       107.3241 
  92   0.0000       3.959326       107.7387 
  93   0.0000       3.959326       107.7387 
  94   0.0000       3.967688       107.9663 
  95   0.0000       3.967688       107.9663 
  96   0.0000       3.997276       108.7714 
  97   0.0000       3.997276       108.7714 
  98   0.0000       4.007492       109.0494 
  99   0.0000       4.035903       109.8225 
 100   0.0000       4.035903       109.8225 
 101   0.0000       4.087056       111.2144 
 102   0.0000       4.087056       111.2144 
 103   0.0000       4.122628       112.1824 
 104   0.0000       4.122628       112.1824 
 105   0.0000       4.164311       113.3167 
 106   0.0000       4.164311       113.3167 
 107   0.0000       4.210031       114.5608 
 108   0.0000       4.228400       115.0606 
 109   0.0000       6.561011       178.5342 
 110   0.0000       6.561011       178.5342 
 111   0.0000       6.568843       178.7473 
 112   0.0000       6.568843       178.7473 
 113   0.0000       6.604780       179.7252 
 114   0.0000       6.604780       179.7252 
 115   0.0000       6.647670       180.8923 
 116   0.0000       7.478341       203.4960 
 117   0.0000       7.954333       216.4484 
 118   0.0000       7.954333       216.4484 
 119   0.0000       8.043343       218.8705 
 120   0.0000       8.403081       228.6594 
 121   0.0000       8.403081       228.6594 
 122   0.0000       8.453649       230.0355 
 123   0.0000       8.453649       230.0355 
 124   0.0000       8.555754       232.8139 
 125   0.0000      13.113127       356.8263 

                 SPIN DOWN ORBITALS
  NO   OCC          E(Eh)            E(eV) 
   0   1.0000      -7.703827      -209.6318 
   1   1.0000      -0.546430       -14.8691 
   2   1.0000      -0.319407        -8.6915 
   3   0.0000       0.022996         0.6258 
   4   0.0000       0.022996         0.6258 
   5   0.0000       0.024141         0.6569 
   6   0.0000       0.048103         1.3089 
   7   0.0000       0.076486         2.0813 
   8   0.0000       0.076486         2.0813 
   9   0.0000       0.081316         2.2127 
  10   0.0000       0.106691         2.9032 
  11   0.0000       0.144373         3.9286 
  12   0.0000       0.144373         3.9286 
  13   0.0000       0.145292         3.9536 
  14   0.0000       0.145292         3.9536 
  15   0.0000       0.187999         5.1157 
  16   0.0000       0.240786         6.5521 
  17   0.0000       0.240786         6.5521 
  18   0.0000       0.261033         7.1031 
  19   0.0000       0.312527         8.5043 
  20   0.0000       0.312527         8.5043 
  21   0.0000       0.323206         8.7949 
  22   0.0000       0.360747         9.8164 
  23   0.0000       0.460120        12.5205 
  24   0.0000       0.460120        12.5205 
  25   0.0000       0.461255        12.5514 
  26   0.0000       0.461255        12.5514 
  27   0.0000       0.475567        12.9408 
  28   0.0000       0.475567        12.9408 
  29   0.0000       0.488829        13.3017 
  30   0.0000       0.499684        13.5971 
  31   0.0000       0.499684        13.5971 
  32   0.0000       0.509540        13.8653 
  33   0.0000       0.509540        13.8653 
  34   0.0000       0.521749        14.1975 
  35   0.0000       0.586738        15.9660 
  36   0.0000       0.656874        17.8745 
  37   0.0000       0.656874        17.8745 
  38   0.0000       0.764905        20.8141 
  39   0.0000       0.764905        20.8141 
  40   0.0000       0.853451        23.2236 
  41   0.0000       0.853451        23.2236 
  42   0.0000       0.896161        24.3858 
  43   0.0000       0.939684        25.5701 
  44   0.0000       1.050586        28.5879 
  45   0.0000       1.050586        28.5879 
  46   0.0000       1.064833        28.9756 
  47   0.0000       1.359239        36.9868 
  48   0.0000       1.359239        36.9868 
  49   0.0000       1.368030        37.2260 
  50   0.0000       1.369075        37.2544 
  51   0.0000       1.369075        37.2544 
  52   0.0000       1.371805        37.3287 
  53   0.0000       1.371805        37.3287 
  54   0.0000       1.377687        37.4888 
  55   0.0000       1.377687        37.4888 
  56   0.0000       1.394181        37.9376 
  57   0.0000       1.403684        38.1962 
  58   0.0000       1.403684        38.1962 
  59   0.0000       1.409145        38.3448 
  60   0.0000       1.409145        38.3448 
  61   0.0000       1.437599        39.1190 
  62   0.0000       1.437599        39.1190 
  63   0.0000       1.446698        39.3667 
  64   0.0000       1.446698        39.3667 
  65   0.0000       1.474698        40.1286 
  66   0.0000       1.498266        40.7699 
  67   0.0000       1.498266        40.7699 
  68   0.0000       1.580566        43.0094 
  69   0.0000       1.580566        43.0094 
  70   0.0000       1.623962        44.1903 
  71   0.0000       1.623962        44.1903 
  72   0.0000       1.656796        45.0837 
  73   0.0000       1.768662        48.1277 
  74   0.0000       1.776107        48.3303 
  75   0.0000       1.776107        48.3303 
  76   0.0000       1.906963        51.8911 
  77   0.0000       2.507008        68.2192 
  78   0.0000       2.507008        68.2192 
  79   0.0000       2.585608        70.3580 
  80   0.0000       2.585608        70.3580 
  81   0.0000       2.657445        72.3127 
  82   0.0000       2.657445        72.3127 
  83   0.0000       2.726041        74.1793 
  84   0.0000       2.782946        75.7278 
  85   0.0000       3.736538       101.6764 
  86   0.0000       3.736538       101.6764 
  87   0.0000       3.787169       103.0541 
  88   0.0000       3.918235       106.6206 
  89   0.0000       3.918235       106.6206 
  90   0.0000       3.933336       107.0315 
  91   0.0000       3.933336       107.0315 
  92   0.0000       3.948988       107.4574 
  93   0.0000       3.948988       107.4574 
  94   0.0000       3.954594       107.6100 
  95   0.0000       3.954594       107.6100 
  96   0.0000       3.961623       107.8013 
  97   0.0000       3.961623       107.8013 
  98   0.0000       3.969739       108.0221 
  99   0.0000       4.013016       109.1997 
 100   0.0000       4.013016       109.1997 
 101   0.0000       4.084502       111.1450 
 102   0.0000       4.084502       111.1450 
 103   0.0000       4.101494       111.6073 
 104   0.0000       4.101494       111.6073 
 105   0.0000       4.131805       112.4321 
 106   0.0000       4.131805       112.4321 
 107   0.0000       4.171651       113.5164 
 108   0.0000       4.197935       114.2316 
 109   0.0000       6.589735       179.3158 
 110   0.0000       6.589735       179.3158 
 111   0.0000       6.597451       179.5258 
 112   0.0000       6.597451       179.5258 
 113   0.0000       6.633081       180.4953 
 114   0.0000       6.633081       180.4953 
 115   0.0000       6.675813       181.6581 
 116   0.0000       7.558590       205.6797 
 117   0.0000       8.011882       218.0144 
 118   0.0000       8.011882       218.0144 
 119   0.0000       8.099718       220.4045 
 120   0.0000       8.445096       229.8028 
 121   0.0000       8.445096       229.8028 
 122   0.0000       8.495285       231.1685 
 123   0.0000       8.495285       231.1685 
 124   0.0000       8.596805       233.9309 
 125   0.0000      13.102052       356.5250 

                    ********************************
                    * MULLIKEN POPULATION ANALYSIS *
                    ********************************

--------------------------------------------
MULLIKEN ATOMIC CHARGES AND SPIN POPULATIONS
--------------------------------------------
   0 B :    0.005123   -0.998693
   1 H :   -0.005123    0.998693
Sum of atomic charges         :   -0.0000000
Sum of atomic spin populations:    0.0000000

-----------------------------------------------------
MULLIKEN REDUCED ORBITAL CHARGES AND SPIN POPULATIONS
-----------------------------------------------------
CHARGE
  0 B s       :     3.993139  s :     3.993139
      pz      :     0.000000  p :     0.996951
      px      :     0.996951
      py      :     0.000000
      dz2     :     0.001219  d :     0.004877
      dxz     :     0.000000
      dyz     :     0.000000
      dx2y2   :     0.003658
      dxy     :     0.000000
      f0      :     0.000000  f :    -0.000093
      f+1     :    -0.000035
      f-1     :     0.000000
      f+2     :     0.000000
      f-2     :     0.000000
      f+3     :    -0.000058
      f-3     :     0.000000
      g0      :     0.000000  g :     0.000003
      g+1     :     0.000000
      g-1     :     0.000000
      g+2     :     0.000001
      g-2     :     0.000000
      g+3     :     0.000000
      g-3     :     0.000000
      g+4     :     0.000002
      g-4     :     0.000000
  1 H s       :     1.004192  s :     1.004192
      pz      :     0.000000  p :     0.000540
      px      :     0.000540
      py      :     0.000000
      dz2     :     0.000092  d :     0.000367
      dxz     :     0.000000
      dyz     :     0.000000
      dx2y2   :     0.000275
      dxy     :     0.000000
      f0      :     0.000000  f :     0.000025
      f+1     :     0.000009
      f-1     :     0.000000
      f+2     :     0.000000
      f-2     :     0.000000
      f+3     :     0.000015
      f-3     :     0.000000

SPIN
  0 B s       :    -0.000086  s :    -0.000086
      pz      :    -0.000000  p :    -0.996968
      px      :    -0.996968
      py      :    -0.000000
      dz2     :    -0.000368  d :    -0.001471
      dxz     :    -0.000000
      dyz     :     0.000000
      dx2y2   :    -0.001103
      dxy     :    -0.000000
      f0      :    -0.000000  f :    -0.000171
      f+1     :    -0.000064
      f-1     :     0.000000
      f+2     :     0.000000
      f-2     :     0.000000
      f+3     :    -0.000107
      f-3     :    -0.000000
      g0      :     0.000000  g :     0.000003
      g+1     :     0.000000
      g-1     :     0.000000
      g+2     :     0.000001
      g-2     :     0.000000
      g+3     :     0.000000
      g-3     :    -0.000000
      g+4     :     0.000001
      g-4     :     0.000000
  1 H s       :     0.998246  s :     0.998246
      pz      :     0.000000  p :     0.000613
      px      :     0.000613
      py      :    -0.000000
      dz2     :    -0.000040  d :    -0.000159
      dxz     :     0.000000
      dyz     :    -0.000000
      dx2y2   :    -0.000119
      dxy     :    -0.000000
      f0      :     0.000000  f :    -0.000006
      f+1     :    -0.000002
      f-1     :     0.000000
      f+2     :     0.000000
      f-2     :     0.000000
      f+3     :    -0.000004
      f-3     :     0.000000


                     *******************************
                     * LOEWDIN POPULATION ANALYSIS *
                     *******************************

-------------------------------------------
LOEWDIN ATOMIC CHARGES AND SPIN POPULATIONS
-------------------------------------------
   0 B :   -0.002667   -0.897134
   1 H :    0.002667    0.897134

----------------------------------------------------
LOEWDIN REDUCED ORBITAL CHARGES AND SPIN POPULATIONS
----------------------------------------------------
CHARGE
  0 B s       :     3.967707  s :     3.967707
      pz      :     0.000000  p :     0.989568
      px      :     0.989568
      py      :     0.000000
      dz2     :     0.008595  d :     0.034379
      dxz     :     0.000000
      dyz     :     0.000000
      dx2y2   :     0.025784
      dxy     :     0.000000
      f0      :     0.000000  f :     0.010619
      f+1     :     0.003982
      f-1     :     0.000000
      f+2     :     0.000000
      f-2     :     0.000000
      f+3     :     0.006637
      f-3     :     0.000000
      g0      :     0.000055  g :     0.000393
      g+1     :     0.000000
      g-1     :     0.000000
      g+2     :     0.000123
      g-2     :     0.000000
      g+3     :     0.000000
      g-3     :     0.000000
      g+4     :     0.000215
      g-4     :     0.000000
  1 H s       :     0.953025  s :     0.953025
      pz      :     0.000000  p :     0.034142
      px      :     0.034142
      py      :     0.000000
      dz2     :     0.002332  d :     0.009329
      dxz     :     0.000000
      dyz     :     0.000000
      dx2y2   :     0.006997
      dxy     :     0.000000
      f0      :     0.000000  f :     0.000836
      f+1     :     0.000314
      f-1     :     0.000000
      f+2     :     0.000000
      f-2     :     0.000000
      f+3     :     0.000523
      f-3     :     0.000000

SPIN
  0 B s       :     0.005213  s :     0.005213
      pz      :    -0.000000  p :    -0.942143
      px      :    -0.942143
      py      :    -0.000000
      dz2     :     0.007219  d :     0.028877
      dxz     :    -0.000000
      dyz     :    -0.000000
      dx2y2   :     0.021658
      dxy     :    -0.000000
      f0      :     0.000000  f :     0.010558
      f+1     :     0.003959
      f-1     :     0.000000
      f+2     :     0.000000
      f-2     :     0.000000
      f+3     :     0.006599
      f-3     :    -0.000000
      g0      :     0.000051  g :     0.000360
      g+1     :     0.000000
      g-1     :    -0.000000
      g+2     :     0.000113
      g-2     :     0.000000
      g+3     :     0.000000
      g-3     :     0.000000
      g+4     :     0.000197
      g-4     :     0.000000
  1 H s       :     0.918781  s :     0.918781
      pz      :    -0.000000  p :    -0.015471
      px      :    -0.015471
      py      :    -0.000000
      dz2     :    -0.001407  d :    -0.005629
      dxz     :    -0.000000
      dyz     :    -0.000000
      dx2y2   :    -0.004222
      dxy     :    -0.000000
      f0      :    -0.000000  f :    -0.000546
      f+1     :    -0.000205
      f-1     :     0.000000
      f+2     :    -0.000000
      f-2     :     0.000000
      f+3     :    -0.000341
      f-3     :    -0.000000


                      *****************************
                      * MAYER POPULATION ANALYSIS *
                      *****************************

  NA   - Mulliken gross atomic population
  ZA   - Total nuclear charge
  QA   - Mulliken gross atomic charge
  VA   - Mayer's total valence
  BVA  - Mayer's bonded valence
  FA   - Mayer's free valence

  ATOM       NA         ZA         QA         VA         BVA        FA
  0 B      4.9949     5.0000     0.0051     1.0209     0.0049     1.0160
  1 H      1.0051     1.0000    -0.0051     1.0012     0.0049     0.9964

  Mayer bond orders larger than 0.100000


-------
TIMINGS
-------

Total SCF time: 0 days 0 hours 0 min 0 sec 

Total time                  ....       0.401 sec
Sum of individual times     ....       0.252 sec  ( 62.8%)

Fock matrix formation       ....       0.225 sec  ( 56.0%)
Diagonalization             ....       0.010 sec  (  2.5%)
Density matrix formation    ....       0.000 sec  (  0.1%)
Population analysis         ....       0.006 sec  (  1.5%)
Initial guess               ....       0.006 sec  (  1.6%)
Orbital Transformation      ....       0.000 sec  (  0.0%)
Orbital Orthonormalization  ....       0.003 sec  (  0.7%)
DIIS solution               ....       0.004 sec  (  1.1%)

Maximum memory used throughout the entire SCF-calculation: 228.6 MB
[cnode10:255771] 7 more processes have sent help message help-mpi-btl-openib.txt / error in device init
[cnode10:255771] Set MCA parameter "orte_base_help_aggregate" to 0 to see all help / error messages
--------------------------------------------------------------------------
WARNING: There was an error initializing an OpenFabrics device.

  Local host:   cnode10
  Local device: mlx5_0
--------------------------------------------------------------------------


           ************************************************************
           *        Program running with 8 parallel MPI-processes     *
           *              working on a common directory               *
           ************************************************************

------------------------------------------------------------------------------
                                ORCA  MP2 
------------------------------------------------------------------------------

Freezing NCore=2 chemical core electrons

----------
MP2 ENERGY (disk based algorithm)
----------

Dimension of the basis                    ...  126
Memory devoted to MP2                     ...  256 MB   
Data format for buffers                   ... DOUBLE
Compression type for matrix containers    ... UNCOMPRESSED

-------------------------------
PARTIAL EXCHANGE TRANSFORMATION
-------------------------------

Transformation type                        ... two-operators
Generation of integrals (i,mue|j,nue)      ... ON
Generation of integrals (mue,kappa|nue,tau)... OFF
Generation of integrals (i,mue|a,nue)      ... OFF
Dimension of the basis                     ...  126
Number of internal alpha-MOs               ...    2 (   1-   2)
Number of internal beta-MOs                ...    2 (   1-   2)
Pair cutoff                                ... 1.000e-14 Eh
Number of AO pairs in the trafo            ... 8001
Total Number of distinct AO pairs          ... 8001
Memory devoted for trafo                   ...  256.0 MB 
Max. Number of MO pairs treated together   ... 2113      
Number Format for Storage                  ... Double (8 Byte)
Integral package used                      ... LIBINT

Starting integral evaluation:
    ... done with AO integral generation
Closing buffer AOK[aa] ( 0.00 GB; CompressionRatio= 0.70)
Closing buffer AOK[bb] ( 0.00 GB; CompressionRatio= 0.70)
Closing buffer AOK[ab] ( 0.00 GB; CompressionRatio= 0.70)
Closing buffer AOK[ba] ( 0.00 GB; CompressionRatio= 0.70)
Collecting buffer AOK 
Number of alpha/alpha MO pairs in trafo    ...    3
Number of beta /beta  MO pairs in trafo    ...    3
Number of alpha/ beta MO pairs in trafo    ...    4
------------------------
SORTING OF (i,mue|j,nue)
------------------------

SORTING OF ALPHA/ALPHA PAIRS
IBATCH = 1 of  1
Closing buffer KAO[aa] ( 0.00 GB; CompressionRatio= 1.00)
Collecting buffer KAO 
SORTING OF BETA /BETA  PAIRS
IBATCH = 1 of  1
Closing buffer KAO[bb] ( 0.00 GB; CompressionRatio= 1.00)
Collecting buffer KAO 
SORTING OF ALPHA/BETA  PAIRS
IBATCH = 1 of  1
Closing buffer KAO[ab] ( 0.00 GB; CompressionRatio= 0.999905526689)
Collecting buffer KAO[ab] 
N(AO-Batches) Done                         ...     62913 
N(AO-Batches) Skipped                      ...      3580 
N(IJ)-pairs Skipped                        ...         0 
TOTAL TIME for half transformation         ...     0.834 sec
AO-integral generation                     ...     0.346 sec
Half transformation                        ...     0.034 sec
K-integral sorting                         ...     0.036 sec

Finished integral transformation - now doing MP2 part

OPERATOR COMBINATION   0   0: ij=(  1..  2,  1..  2)
OPERATOR COMBINATION   0   1: ij=(  1..  2,  1..  2)
OPERATOR COMBINATION   1   1: ij=(  1..  2,  1..  2)

Correlation energy components
 E2 and T2 for alpha/alpha pairs :     -0.000126382 Eh 
 E2 and T2 for beta/beta   pairs :     -0.003439074 Eh 
 E2 and T2 for alpha/beta  pairs :     -0.044471792 Eh 

-----------------------------------------------
 MP2 CORRELATION ENERGY   :     -0.048037248 Eh
-----------------------------------------------


-------
TIMINGS
-------
Total time                :    0.935 sec
Integral trafo            :    0.837 sec ( 89.5%)
K(i,j)                    :    0.000 sec (  0.0%)
T(i,j)                    :    0.000 sec (  0.0%)

---------------------------------------
MP2 TOTAL ENERGY:      -25.081356945 Eh
---------------------------------------

Maximum memory used throughout the entire MP2-calculation: 78.7 MB
[cnode10:255831] 7 more processes have sent help message help-mpi-btl-openib.txt / error in device init
[cnode10:255831] Set MCA parameter "orte_base_help_aggregate" to 0 to see all help / error messages

-------------------------   --------------------
FINAL SINGLE POINT ENERGY       -25.081356945076
-------------------------   --------------------


                            ***************************************
                            *     ORCA property calculations      *
                            ***************************************


  WARNING: The energy has been calculated at the MP2 level but the densities
           used in the property calculations are still SCF densities
           MP2 response densities have not been calculated 
           use %mp2 Density relaxed end
           or  %mp2 Density unrelaxed end

                                    ---------------------
                                    Active property flags
                                    ---------------------
   (+) Dipole Moment


------------------------------------------------------------------------------
                       ORCA ELECTRIC PROPERTIES CALCULATION
------------------------------------------------------------------------------

Dipole Moment Calculation                       ... on
Quadrupole Moment Calculation                   ... off
Polarizability Calculation                      ... off
GBWName                                         ... /scratch/BH-3.4-UMP2-O_338/BH-3.4-UMP2-O.gbw
Electron density file                           ... /scratch/BH-3.4-UMP2-O_338/BH-3.4-UMP2-O.scfp
The origin for moment calculation is the CENTER OF MASS  = ( 0.548017,  0.000000  0.000000)

-------------
DIPOLE MOMENT
-------------
                                X             Y             Z
Electronic contribution:     -3.18196       0.00000       0.00000
Nuclear contribution   :      3.13696       0.00000       0.00000
                        -----------------------------------------
Total Dipole Moment    :     -0.04500       0.00000       0.00000
                        -----------------------------------------
Magnitude (a.u.)       :      0.04500
Magnitude (Debye)      :      0.11437



--------------------
Rotational spectrum 
--------------------
 
Rotational constants in cm-1:     0.000000     1.581601     1.581601 
Rotational constants in MHz :     0.000000 47415.193741 47415.193741 

 Dipole components along the rotational axes: 
x,y,z [a.u.] :    -0.044996     0.000000     0.000000 
x,y,z [Debye]:    -0.114371     0.000000     0.000000 

 
--------------------------------------------------------------------------
WARNING: There was an error initializing an OpenFabrics device.

  Local host:   cnode10
  Local device: mlx5_0
--------------------------------------------------------------------------
[cnode10:255891] 7 more processes have sent help message help-mpi-btl-openib.txt / error in device init
[cnode10:255891] Set MCA parameter "orte_base_help_aggregate" to 0 to see all help / error messages

Timings for individual modules:

Sum of individual times         ...        2.636 sec (=   0.044 min)
GTO integral calculation        ...        0.505 sec (=   0.008 min)  19.2 %
SCF iterations                  ...        0.788 sec (=   0.013 min)  29.9 %
MP2 module                      ...        1.343 sec (=   0.022 min)  50.9 %
                             ****ORCA TERMINATED NORMALLY****
TOTAL RUN TIME: 0 days 0 hours 0 minutes 3 seconds 74 msec

Sender: Unischeduler System <lcz@mgt01>
Subject: Job 133935: <#!/bin/bash
#BSUB -J intel
#BSUB -o BH-3.4-UMP2-O.out
#BSUB -n 8
#BSUB -q cqueue
export LD_LIBRARY_PATH=/apps/software/openmpi-4.1.1/lib:/apps/software/orca_5_0_0:$LD_LIBRARY_PATH
export PATH=/apps/software/openmpi-4.1.1/bin:/apps/software/orca_5_0_0:$PATH
mkdir /scratch/BH-3.4-UMP2-O_338
scp $USER@mgt01:/apps/users/lcz/exe13/UMP2/BH-3.4-UMP2-O.inp /scratch/BH-3.4-UMP2-O_338
scp $USER@mgt01:/apps/users/lcz/exe13/UMP2/BH-3.4-UHF-O.gbw /scratch/BH-3.4-UMP2-O_338
/apps/software/orca_5_0_0/orca /scratch/BH-3.4-UMP2-O_338/BH-3.4-UMP2-O.inp >& BH-3.4-UMP2-O.out
scp /scratch/BH-3.4-UMP2-O_338/*.gbw $USER@mgt01:/apps/users/lcz/exe13/UMP2
scp /scratch/BH-3.4-UMP2-O_338/*.xyz $USER@mgt01:/apps/users/lcz/exe13/UMP2
scp /scratch/BH-3.4-UMP2-O_338/*.trj $USER@mgt01:/apps/users/lcz/exe13/UMP2> Exited

Job <#!/bin/bash
#BSUB -J intel
#BSUB -o BH-3.4-UMP2-O.out
#BSUB -n 8
#BSUB -q cqueue
export LD_LIBRARY_PATH=/apps/software/openmpi-4.1.1/lib:/apps/software/orca_5_0_0:$LD_LIBRARY_PATH
export PATH=/apps/software/openmpi-4.1.1/bin:/apps/software/orca_5_0_0:$PATH
mkdir /scratch/BH-3.4-UMP2-O_338
scp $USER@mgt01:/apps/users/lcz/exe13/UMP2/BH-3.4-UMP2-O.inp /scratch/BH-3.4-UMP2-O_338
scp $USER@mgt01:/apps/users/lcz/exe13/UMP2/BH-3.4-UHF-O.gbw /scratch/BH-3.4-UMP2-O_338
/apps/software/orca_5_0_0/orca /scratch/BH-3.4-UMP2-O_338/BH-3.4-UMP2-O.inp >& BH-3.4-UMP2-O.out
scp /scratch/BH-3.4-UMP2-O_338/*.gbw $USER@mgt01:/apps/users/lcz/exe13/UMP2
scp /scratch/BH-3.4-UMP2-O_338/*.xyz $USER@mgt01:/apps/users/lcz/exe13/UMP2
scp /scratch/BH-3.4-UMP2-O_338/*.trj $USER@mgt01:/apps/users/lcz/exe13/UMP2> was submitted from host <mgt01> by user <lcz>.
Job was executed on host(s) <8*cnode10>, in queue <cqueue>, as user <lcz>.
</apps/users/lcz> was used as the home directory.
</apps/users/lcz/exe13/UMP2> was used as the working directory.
Started at 2022-05-22 11:38:15
Results reported at 2022-05-22 11:38:20

Your job looked like:

------------------------------------------------------------
# User input
#!/bin/bash
#BSUB -J intel
#BSUB -o BH-3.4-UMP2-O.out
#BSUB -n 8
#BSUB -q cqueue
export LD_LIBRARY_PATH=/apps/software/openmpi-4.1.1/lib:/apps/software/orca_5_0_0:$LD_LIBRARY_PATH
export PATH=/apps/software/openmpi-4.1.1/bin:/apps/software/orca_5_0_0:$PATH
mkdir /scratch/BH-3.4-UMP2-O_338
scp $USER@mgt01:/apps/users/lcz/exe13/UMP2/BH-3.4-UMP2-O.inp /scratch/BH-3.4-UMP2-O_338
scp $USER@mgt01:/apps/users/lcz/exe13/UMP2/BH-3.4-UHF-O.gbw /scratch/BH-3.4-UMP2-O_338
/apps/software/orca_5_0_0/orca /scratch/BH-3.4-UMP2-O_338/BH-3.4-UMP2-O.inp >& BH-3.4-UMP2-O.out
scp /scratch/BH-3.4-UMP2-O_338/*.gbw $USER@mgt01:/apps/users/lcz/exe13/UMP2
scp /scratch/BH-3.4-UMP2-O_338/*.xyz $USER@mgt01:/apps/users/lcz/exe13/UMP2
scp /scratch/BH-3.4-UMP2-O_338/*.trj $USER@mgt01:/apps/users/lcz/exe13/UMP2
------------------------------------------------------------

Exited with exit code 1.

Resource usage summary:

    Max Memory :                 0 MB
    Max Processes  :               1


The output (if any) follows:

/scratch/BH-3.4-UMP2-O_338/*.xyz: No such file or directory
/scratch/BH-3.4-UMP2-O_338/*.trj: No such file or directory
