 Entering Gaussian System, Link 0=/apps/software/g16/g16
 Initial command:
 /apps/software/g16/l1.exe "/scratch/Gau-109537.inp" -scrdir="/scratch/"
 Entering Link 1 = /apps/software/g16/l1.exe PID=    109538.
  
 Copyright (c) 1988,1990,1992,1993,1995,1998,2003,2009,2016,
            Gaussian, Inc.  All Rights Reserved.
  
 This is part of the Gaussian(R) 16 program.  It is based on
 the Gaussian(R) 09 system (copyright 2009, Gaussian, Inc.),
 the Gaussian(R) 03 system (copyright 2003, Gaussian, Inc.),
 the Gaussian(R) 98 system (copyright 1998, Gaussian, Inc.),
 the Gaussian(R) 94 system (copyright 1995, Gaussian, Inc.),
 the Gaussian 92(TM) system (copyright 1992, Gaussian, Inc.),
 the Gaussian 90(TM) system (copyright 1990, Gaussian, Inc.),
 the Gaussian 88(TM) system (copyright 1988, Gaussian, Inc.),
 the Gaussian 86(TM) system (copyright 1986, Carnegie Mellon
 University), and the Gaussian 82(TM) system (copyright 1983,
 Carnegie Mellon University). Gaussian is a federally registered
 trademark of Gaussian, Inc.
  
 This software contains proprietary and confidential information,
 including trade secrets, belonging to Gaussian, Inc.
  
 This software is provided under written license and may be
 used, copied, transmitted, or stored only in accord with that
 written license.
  
 The following legend is applicable only to US Government
 contracts under FAR:
  
                    RESTRICTED RIGHTS LEGEND
  
 Use, reproduction and disclosure by the US Government is
 subject to restrictions as set forth in subparagraphs (a)
 and (c) of the Commercial Computer Software - Restricted
 Rights clause in FAR 52.227-19.
  
 Gaussian, Inc.
 340 Quinnipiac St., Bldg. 40, Wallingford CT 06492
  
  
 ---------------------------------------------------------------
 Warning -- This program may not be used in any manner that
 competes with the business of Gaussian, Inc. or will provide
 assistance to any competitor of Gaussian, Inc.  The licensee
 of this program is prohibited from giving any competitor of
 Gaussian, Inc. access to this program.  By using this program,
 the user acknowledges that Gaussian, Inc. is engaged in the
 business of creating and licensing software in the field of
 computational chemistry and represents and warrants to the
 licensee that it is not a competitor of Gaussian, Inc. and that
 it will not use this program in any manner prohibited above.
 ---------------------------------------------------------------
  

 Cite this work as:
 Gaussian 16, Revision A.03,
 M. J. Frisch, G. W. Trucks, H. B. Schlegel, G. E. Scuseria, 
 M. A. Robb, J. R. Cheeseman, G. Scalmani, V. Barone, 
 G. A. Petersson, H. Nakatsuji, X. Li, M. Caricato, A. V. Marenich, 
 J. Bloino, B. G. Janesko, R. Gomperts, B. Mennucci, H. P. Hratchian, 
 J. V. Ortiz, A. F. Izmaylov, J. L. Sonnenberg, D. Williams-Young, 
 F. Ding, F. Lipparini, F. Egidi, J. Goings, B. Peng, A. Petrone, 
 T. Henderson, D. Ranasinghe, V. G. Zakrzewski, J. Gao, N. Rega, 
 G. Zheng, W. Liang, M. Hada, M. Ehara, K. Toyota, R. Fukuda, 
 J. Hasegawa, M. Ishida, T. Nakajima, Y. Honda, O. Kitao, H. Nakai, 
 T. Vreven, K. Throssell, J. A. Montgomery, Jr., J. E. Peralta, 
 F. Ogliaro, M. J. Bearpark, J. J. Heyd, E. N. Brothers, K. N. Kudin, 
 V. N. Staroverov, T. A. Keith, R. Kobayashi, J. Normand, 
 K. Raghavachari, A. P. Rendell, J. C. Burant, S. S. Iyengar, 
 J. Tomasi, M. Cossi, J. M. Millam, M. Klene, C. Adamo, R. Cammi, 
 J. W. Ochterski, R. L. Martin, K. Morokuma, O. Farkas, 
 J. B. Foresman, and D. J. Fox, Gaussian, Inc., Wallingford CT, 2016.
 
 ******************************************
 Gaussian 16:  ES64L-G16RevA.03 25-Dec-2016
                22-May-2022 
 ******************************************
 %chk=BH-5.6-UHF-G.chk
 ---------------------------------------
 #p UHF/aug-cc-pVQZ guess=mix stable=opt
 ---------------------------------------
 1/38=1,172=1/1;
 2/12=2,17=6,18=5,40=1/2;
 3/5=16,6=2,7=10,11=2,25=1,30=1,116=2/1,2,3;
 4/13=-1/1;
 5/5=2,38=5/2;
 6/7=2,8=2,9=2,10=2,28=1/1;
 8/6=1,10=90,11=11/1;
 9/8=-3,42=1,46=1/14;
 5/5=2,8=3,17=40,38=5/8(-2);
 6/7=2,8=2,9=2,10=2,28=1/1;
 99/5=1,9=1/99;
 Leave Link    1 at Sun May 22 10:56:22 2022, MaxMem=           0 cpu:               0.0 elap:               0.0
 (Enter /apps/software/g16/l101.exe)
 ----------------------
 BH UHF at 5.6 Angstrom
 ----------------------
 Symbolic Z-matrix:
 Charge =  0 Multiplicity = 1
 B                     0.        0.        0. 
 H                     5.6       0.        0. 
 
 ITRead=  0  0
 MicOpt= -1 -1
 NAtoms=      2 NQM=        2 NQMF=       0 NMMI=      0 NMMIF=      0
                NMic=       0 NMicF=      0.
                    Isotopes and Nuclear Properties:
 (Nuclear quadrupole moments (NQMom) in fm**2, nuclear magnetic moments (NMagM)
  in nuclear magnetons)

  Atom         1           2
 IAtWgt=          11           1
 AtmWgt=  11.0093053   1.0078250
 NucSpn=           3           1
 AtZEff=  -0.0000000  -0.0000000
 NQMom=    4.0590000   0.0000000
 NMagM=    2.6886370   2.7928460
 AtZNuc=   5.0000000   1.0000000
 Leave Link  101 at Sun May 22 10:56:22 2022, MaxMem=   104857600 cpu:               0.1 elap:               0.1
 (Enter /apps/software/g16/l202.exe)
                          Input orientation:                          
 ---------------------------------------------------------------------
 Center     Atomic      Atomic             Coordinates (Angstroms)
 Number     Number       Type             X           Y           Z
 ---------------------------------------------------------------------
      1          5           0        0.000000    0.000000    0.000000
      2          1           0        5.600000    0.000000    0.000000
 ---------------------------------------------------------------------
 Stoichiometry    BH
 Framework group  C*V[C*(HB)]
 Deg. of freedom     1
 Full point group                 C*V     NOp   4
 Largest Abelian subgroup         C2V     NOp   4
 Largest concise Abelian subgroup C1      NOp   1
                         Standard orientation:                         
 ---------------------------------------------------------------------
 Center     Atomic      Atomic             Coordinates (Angstroms)
 Number     Number       Type             X           Y           Z
 ---------------------------------------------------------------------
      1          5           0        0.000000    0.000000    0.933333
      2          1           0        0.000000    0.000000   -4.666667
 ---------------------------------------------------------------------
 Rotational constants (GHZ):           0.0000000          17.4540758          17.4540758
 Leave Link  202 at Sun May 22 10:56:22 2022, MaxMem=   104857600 cpu:               0.0 elap:               0.0
 (Enter /apps/software/g16/l301.exe)
 Standard basis: Aug-CC-pVQZ (5D, 7F)
 Ernie: Thresh=  0.10000D-02 Tol=  0.10000D-05 Strict=F.
 Ernie:  4 primitive shells out of 54 were deleted.
 There are    68 symmetry adapted cartesian basis functions of A1  symmetry.
 There are    18 symmetry adapted cartesian basis functions of A2  symmetry.
 There are    37 symmetry adapted cartesian basis functions of B1  symmetry.
 There are    37 symmetry adapted cartesian basis functions of B2  symmetry.
 There are    50 symmetry adapted basis functions of A1  symmetry.
 There are    16 symmetry adapted basis functions of A2  symmetry.
 There are    30 symmetry adapted basis functions of B1  symmetry.
 There are    30 symmetry adapted basis functions of B2  symmetry.
   126 basis functions,   180 primitive gaussians,   160 cartesian basis functions
     3 alpha electrons        3 beta electrons
       nuclear repulsion energy         0.4724796526 Hartrees.
 IExCor=    0 DFT=F Ex=HF Corr=None ExCW=0 ScaHFX=  1.000000
 ScaDFX=  1.000000  1.000000  1.000000  1.000000 ScalE2=  1.000000  1.000000
 IRadAn=      5 IRanWt=     -1 IRanGd=            0 ICorTp=0 IEmpDi=  4
 NAtoms=    2 NActive=    2 NUniq=    2 SFac= 1.00D+00 NAtFMM=   60 NAOKFM=F Big=F
 Integral buffers will be    131072 words long.
 Raffenetti 2 integral format.
 Two-electron integral symmetry is turned on.
 Leave Link  301 at Sun May 22 10:56:22 2022, MaxMem=   104857600 cpu:               0.1 elap:               0.1
 (Enter /apps/software/g16/l302.exe)
 NPDir=0 NMtPBC=     1 NCelOv=     1 NCel=       1 NClECP=     1 NCelD=      1
         NCelK=      1 NCelE2=     1 NClLst=     1 CellRange=     0.0.
 One-electron integrals computed using PRISM.
 One-electron integral symmetry used in STVInt
 NBasis=   126 RedAO= T EigKep=  1.25D-02  NBF=    50    16    30    30
 NBsUse=   126 1.00D-06 EigRej= -1.00D+00 NBFU=    50    16    30    30
 Leave Link  302 at Sun May 22 10:56:22 2022, MaxMem=   104857600 cpu:               0.1 elap:               0.1
 (Enter /apps/software/g16/l303.exe)
 DipDrv:  MaxL=1.
 Leave Link  303 at Sun May 22 10:56:23 2022, MaxMem=   104857600 cpu:               0.0 elap:               0.0
 (Enter /apps/software/g16/l401.exe)
 ExpMin= 1.88D-02 ExpMax= 2.39D+04 ExpMxC= 2.30D+02 IAcc=3 IRadAn=         5 AccDes= 0.00D+00
 Harris functional with IExCor=  205 and IRadAn=       5 diagonalized for initial guess.
 HarFok:  IExCor=  205 AccDes= 0.00D+00 IRadAn=         5 IDoV= 1 UseB2=F ITyADJ=14
 ICtDFT=  3500011 ScaDFX=  1.000000  1.000000  1.000000  1.000000
 FoFCou: FMM=F IPFlag=           0 FMFlag=      100000 FMFlg1=           0
         NFxFlg=           0 DoJE=T BraDBF=F KetDBF=T FulRan=T
         wScrn=  0.000000 ICntrl=       500 IOpCl=  0 I1Cent=   200000004 NGrid=           0
         NMat0=    1 NMatS0=      1 NMatT0=    0 NMatD0=    1 NMtDS0=    0 NMtDT0=    0
 Petite list used in FoFCou.
 Harris En= -24.9881100966385    
 JPrj=0 DoOrth=F DoCkMO=T.
 Mixing orbitals, IMix= 1 IMixAn=  0 NRI=1 NE=    3 Coef=  7.07106781D-01  7.07106781D-01
 Mixing orbitals, IMix= 1 IMixAn=  0 NRI=1 NE=    3 Coef= -7.07106781D-01  7.07106781D-01
 Initial guess orbital symmetries:
 Alpha Orbitals:
       Occupied  (SG) (SG) (SG)
       Virtual   (SG) (PI) (PI) (SG) (SG) (PI) (PI) (SG) (SG) (PI)
                 (PI) (DLTA) (DLTA) (PI) (PI) (SG) (PI) (PI) (SG)
                 (SG) (SG) (PI) (PI) (DLTA) (DLTA) (SG) (PI) (PI)
                 (DLTA) (DLTA) (PHI) (PHI) (SG) (DLTA) (DLTA) (PI)
                 (PI) (SG) (PI) (PI) (SG) (PI) (PI) (SG) (SG) (DLTA)
                 (DLTA) (PI) (PI) (SG) (?A) (DLTA) (?B) (?B) (DLTA)
                 (?A) (?B) (?B) (SG) (DLTA) (PHI) (PHI) (DLTA)
                 (PI) (PI) (SG) (SG) (PHI) (PHI) (DLTA) (DLTA)
                 (PI) (PI) (SG) (DLTA) (DLTA) (PI) (PI) (SG) (PI)
                 (PI) (SG) (PI) (PI) (SG) (DLTA) (DLTA) (PI) (PI)
                 (SG) (DLTA) (?C) (?B) (?B) (DLTA) (?C) (?B) (?B)
                 (?C) (DLTA) (PHI) (PHI) (DLTA) (PI) (PI) (SG)
                 (PHI) (PHI) (DLTA) (DLTA) (PI) (PI) (SG) (SG)
                 (PI) (PI) (SG) (DLTA) (DLTA) (PI) (PI) (SG) (SG)
 Beta  Orbitals:
       Occupied  (SG) (SG) (SG)
       Virtual   (SG) (PI) (PI) (SG) (SG) (PI) (PI) (SG) (SG) (PI)
                 (PI) (DLTA) (DLTA) (PI) (PI) (SG) (PI) (PI) (SG)
                 (SG) (SG) (PI) (PI) (DLTA) (DLTA) (SG) (PI) (PI)
                 (DLTA) (DLTA) (PHI) (PHI) (SG) (DLTA) (DLTA) (PI)
                 (PI) (SG) (PI) (PI) (SG) (PI) (PI) (SG) (SG) (DLTA)
                 (DLTA) (PI) (PI) (SG) (?A) (DLTA) (?B) (?B) (DLTA)
                 (?A) (?B) (?B) (SG) (DLTA) (PHI) (PHI) (DLTA)
                 (PI) (PI) (SG) (SG) (PHI) (PHI) (DLTA) (DLTA)
                 (PI) (PI) (SG) (DLTA) (DLTA) (PI) (PI) (SG) (PI)
                 (PI) (SG) (PI) (PI) (SG) (DLTA) (DLTA) (PI) (PI)
                 (SG) (DLTA) (?C) (?B) (?B) (DLTA) (?C) (?B) (?B)
                 (?C) (DLTA) (PHI) (PHI) (DLTA) (PI) (PI) (SG)
                 (PHI) (PHI) (DLTA) (DLTA) (PI) (PI) (SG) (SG)
                 (PI) (PI) (SG) (DLTA) (DLTA) (PI) (PI) (SG) (SG)
 The electronic state of the initial guess is 1-SG.
 Initial guess <Sx>= 0.0000 <Sy>= 0.0000 <Sz>= 0.0000 <S**2>= 1.0000 S= 0.6180
 Leave Link  401 at Sun May 22 10:56:23 2022, MaxMem=   104857600 cpu:               0.2 elap:               0.2
 (Enter /apps/software/g16/l502.exe)
 Keep R1 and R2 ints in memory in symmetry-blocked form, NReq=40143665.
 FoFCou: FMM=F IPFlag=           0 FMFlag=           0 FMFlg1=           0
         NFxFlg=           0 DoJE=F BraDBF=F KetDBF=F FulRan=T
         wScrn=  0.000000 ICntrl=       600 IOpCl=  0 I1Cent=           0 NGrid=           0
         NMat0=    1 NMatS0=   8001 NMatT0=    0 NMatD0=    1 NMtDS0=    0 NMtDT0=    0
 Petite list used in FoFCou.
 UHF open shell SCF:
 Using DIIS extrapolation, IDIIS=  1040.
 NGot=   104857600 LenX=    88563632 LenY=    88537591
 Requested convergence on RMS density matrix=1.00D-08 within 128 cycles.
 Requested convergence on MAX density matrix=1.00D-06.
 Requested convergence on             energy=1.00D-06.
 No special actions if energy rises.
 An orbital has undefined symmetry, so N**3 symmetry is turned off.

 Cycle   1  Pass 1  IDiag  1:
 E= -24.8199641199671    
 DIIS: error= 3.43D-02 at cycle   1 NSaved=   1.
 NSaved= 1 IEnMin= 1 EnMin= -24.8199641199671     IErMin= 1 ErrMin= 3.43D-02
 ErrMax= 3.43D-02  0.00D+00 EMaxC= 1.00D-01 BMatC= 1.47D-01 BMatP= 1.47D-01
 IDIUse=3 WtCom= 6.57D-01 WtEn= 3.43D-01
 Coeff-Com:  0.100D+01
 Coeff-En:   0.100D+01
 Coeff:      0.100D+01
 Gap=     0.096 Goal=   None    Shift=    0.000
 Gap=     0.099 Goal=   None    Shift=    0.000
 GapD=    0.096 DampG=0.500 DampE=0.500 DampFc=0.2500 IDamp=-1.
 Damping current iteration by 2.50D-01
 RMSDP=1.96D-03 MaxDP=9.21D-02              OVMax= 4.39D-01

 Cycle   2  Pass 1  IDiag  1:
 E= -24.8313622498257     Delta-E=       -0.011398129859 Rises=F Damp=T
 DIIS: error= 2.75D-02 at cycle   2 NSaved=   2.
 NSaved= 2 IEnMin= 2 EnMin= -24.8313622498257     IErMin= 2 ErrMin= 2.75D-02
 ErrMax= 2.75D-02  0.00D+00 EMaxC= 1.00D-01 BMatC= 8.59D-02 BMatP= 1.47D-01
 IDIUse=3 WtCom= 7.25D-01 WtEn= 2.75D-01
 Coeff-Com: -0.179D+01 0.279D+01
 Coeff-En:   0.000D+00 0.100D+01
 Coeff:     -0.130D+01 0.230D+01
 Gap=     0.062 Goal=   None    Shift=    0.000
 Gap=     0.051 Goal=   None    Shift=    0.000
 RMSDP=1.30D-03 MaxDP=6.08D-02 DE=-1.14D-02 OVMax= 4.65D-01

 Cycle   3  Pass 1  IDiag  1:
 E= -24.8535030883573     Delta-E=       -0.022140838532 Rises=F Damp=F
 DIIS: error= 3.87D-02 at cycle   3 NSaved=   3.
 NSaved= 3 IEnMin= 3 EnMin= -24.8535030883573     IErMin= 2 ErrMin= 2.75D-02
 ErrMax= 3.87D-02  0.00D+00 EMaxC= 1.00D-01 BMatC= 2.69D-02 BMatP= 8.59D-02
 IDIUse=3 WtCom= 6.13D-01 WtEn= 3.87D-01
 Coeff-Com: -0.114D+01 0.151D+01 0.634D+00
 Coeff-En:   0.000D+00 0.000D+00 0.100D+01
 Coeff:     -0.700D+00 0.924D+00 0.775D+00
 Gap=     0.139 Goal=   None    Shift=    0.000
 Gap=     0.099 Goal=   None    Shift=    0.000
 RMSDP=1.29D-03 MaxDP=5.95D-02 DE=-2.21D-02 OVMax= 3.92D-01

 Cycle   4  Pass 1  IDiag  1:
 E= -24.9255848288566     Delta-E=       -0.072081740499 Rises=F Damp=F
 DIIS: error= 3.97D-02 at cycle   4 NSaved=   4.
 NSaved= 4 IEnMin= 4 EnMin= -24.9255848288566     IErMin= 2 ErrMin= 2.75D-02
 ErrMax= 3.97D-02  0.00D+00 EMaxC= 1.00D-01 BMatC= 2.71D-02 BMatP= 2.69D-02
 IDIUse=3 WtCom= 6.03D-01 WtEn= 3.97D-01
 Coeff-Com: -0.185D+01 0.238D+01 0.982D+00-0.509D+00
 Coeff-En:   0.000D+00 0.000D+00 0.000D+00 0.100D+01
 Coeff:     -0.112D+01 0.143D+01 0.592D+00 0.905D-01
 Gap=     0.171 Goal=   None    Shift=    0.000
 Gap=     0.106 Goal=   None    Shift=    0.000
 RMSDP=5.12D-04 MaxDP=3.09D-02 DE=-7.21D-02 OVMax= 1.56D-01

 Cycle   5  Pass 1  IDiag  1:
 E= -24.9507316737953     Delta-E=       -0.025146844939 Rises=F Damp=F
 DIIS: error= 3.17D-02 at cycle   5 NSaved=   5.
 NSaved= 5 IEnMin= 5 EnMin= -24.9507316737953     IErMin= 2 ErrMin= 2.75D-02
 ErrMax= 3.17D-02  0.00D+00 EMaxC= 1.00D-01 BMatC= 3.08D-02 BMatP= 2.69D-02
 IDIUse=2 WtCom= 0.00D+00 WtEn= 1.00D+00
 Coeff-En:   0.000D+00 0.000D+00 0.000D+00 0.000D+00 0.100D+01
 Coeff:      0.000D+00 0.000D+00 0.000D+00 0.000D+00 0.100D+01
 Gap=     0.403 Goal=   None    Shift=    0.000
 Gap=     0.202 Goal=   None    Shift=    0.000
 RMSDP=1.23D-03 MaxDP=5.23D-02 DE=-2.51D-02 OVMax= 3.11D-01

 Cycle   6  Pass 1  IDiag  1:
 E= -25.0170427697771     Delta-E=       -0.066311095982 Rises=F Damp=F
 DIIS: error= 1.55D-02 at cycle   6 NSaved=   6.
 NSaved= 6 IEnMin= 6 EnMin= -25.0170427697771     IErMin= 6 ErrMin= 1.55D-02
 ErrMax= 1.55D-02  0.00D+00 EMaxC= 1.00D-01 BMatC= 1.12D-02 BMatP= 2.69D-02
 IDIUse=3 WtCom= 8.45D-01 WtEn= 1.55D-01
 Coeff-Com: -0.121D+00 0.129D+00 0.639D+00 0.117D+01-0.204D+01 0.123D+01
 Coeff-En:   0.000D+00 0.000D+00 0.000D+00 0.000D+00 0.000D+00 0.100D+01
 Coeff:     -0.102D+00 0.109D+00 0.540D+00 0.985D+00-0.173D+01 0.120D+01
 Gap=     0.394 Goal=   None    Shift=    0.000
 Gap=     0.201 Goal=   None    Shift=    0.000
 RMSDP=3.82D-04 MaxDP=2.53D-02 DE=-6.63D-02 OVMax= 5.58D-02

 Cycle   7  Pass 1  IDiag  1:
 E= -25.0248020818806     Delta-E=       -0.007759312104 Rises=F Damp=F
 DIIS: error= 1.14D-02 at cycle   7 NSaved=   7.
 NSaved= 7 IEnMin= 7 EnMin= -25.0248020818806     IErMin= 7 ErrMin= 1.14D-02
 ErrMax= 1.14D-02  0.00D+00 EMaxC= 1.00D-01 BMatC= 6.20D-03 BMatP= 1.12D-02
 IDIUse=3 WtCom= 8.86D-01 WtEn= 1.14D-01
 Coeff-Com: -0.117D+00 0.124D+00 0.631D+00 0.115D+01-0.202D+01 0.118D+01
 Coeff-Com:  0.473D-01
 Coeff-En:   0.000D+00 0.000D+00 0.000D+00 0.000D+00 0.000D+00 0.000D+00
 Coeff-En:   0.100D+01
 Coeff:     -0.103D+00 0.109D+00 0.559D+00 0.102D+01-0.179D+01 0.105D+01
 Coeff:      0.156D+00
 Gap=     0.387 Goal=   None    Shift=    0.000
 Gap=     0.200 Goal=   None    Shift=    0.000
 RMSDP=2.19D-05 MaxDP=1.63D-03 DE=-7.76D-03 OVMax= 2.54D-03

 Cycle   8  Pass 1  IDiag  1:
 E= -25.0250697911154     Delta-E=       -0.000267709235 Rises=F Damp=F
 DIIS: error= 1.13D-02 at cycle   8 NSaved=   8.
 NSaved= 8 IEnMin= 8 EnMin= -25.0250697911154     IErMin= 8 ErrMin= 1.13D-02
 ErrMax= 1.13D-02  0.00D+00 EMaxC= 1.00D-01 BMatC= 6.06D-03 BMatP= 6.20D-03
 IDIUse=3 WtCom= 8.87D-01 WtEn= 1.13D-01
 Coeff-Com: -0.133D+00 0.143D+00 0.641D+00 0.111D+01-0.195D+01 0.901D+00
 Coeff-Com:  0.437D+01-0.408D+01
 Coeff-En:   0.000D+00 0.000D+00 0.000D+00 0.000D+00 0.000D+00 0.000D+00
 Coeff-En:   0.000D+00 0.100D+01
 Coeff:     -0.118D+00 0.127D+00 0.569D+00 0.989D+00-0.173D+01 0.800D+00
 Coeff:      0.388D+01-0.351D+01
 Gap=     0.383 Goal=   None    Shift=    0.000
 Gap=     0.196 Goal=   None    Shift=    0.000
 RMSDP=2.47D-05 MaxDP=1.62D-03 DE=-2.68D-04 OVMax= 5.11D-03

 Cycle   9  Pass 1  IDiag  1:
 E= -25.0245494549296     Delta-E=        0.000520336186 Rises=F Damp=F
 DIIS: error= 1.17D-02 at cycle   9 NSaved=   9.
 NSaved= 9 IEnMin= 8 EnMin= -25.0250697911154     IErMin= 8 ErrMin= 1.13D-02
 ErrMax= 1.17D-02  0.00D+00 EMaxC= 1.00D-01 BMatC= 6.38D-03 BMatP= 6.06D-03
 IDIUse=3 WtCom= 8.87D-01 WtEn= 1.13D-01
 Large coefficients: NSaved=  9 BigCof=   24.10 CofMax=   10.00 Det=-7.69D-08
 Inversion failed.  Reducing to  8 matrices.
 Large coefficients: NSaved=  8 BigCof=   22.15 CofMax=   10.00 Det=-7.92D-08
 Inversion failed.  Reducing to  7 matrices.
 Large coefficients: NSaved=  7 BigCof=   15.32 CofMax=   10.00 Det=-8.38D-08
 Inversion failed.  Reducing to  6 matrices.
 Large coefficients: NSaved=  6 BigCof=   48.44 CofMax=   10.00 Det=-1.88D-07
 Inversion failed.  Reducing to  5 matrices.
 Large coefficients: NSaved=  5 BigCof=   47.40 CofMax=   10.00 Det=-3.12D-07
 Inversion failed.  Reducing to  4 matrices.
 Large coefficients: NSaved=  4 BigCof=   22.62 CofMax=   10.00 Det=-6.35D-07
 Inversion failed.  Reducing to  3 matrices.
 Large coefficients: NSaved=  3 BigCof=   33.66 CofMax=   10.00 Det=-2.11D-06
 Inversion failed.  Reducing to  2 matrices.
 Large coefficients: NSaved=  2 BigCof=   31.55 CofMax=   10.00 Det=-5.20D-06
 Coeff-Com:  0.316D+02-0.306D+02
 Coeff-En:   0.000D+00 0.100D+01
 Coeff:      0.280D+02-0.270D+02
 Gap=     0.576 Goal=   None    Shift=    0.000
 Gap=     0.340 Goal=   None    Shift=    0.000
 RMSDP=7.66D-04 MaxDP=4.75D-02 DE= 5.20D-04 OVMax= 1.35D-01

 Cycle  10  Pass 1  IDiag  1:
 E= -25.0328182878218     Delta-E=       -0.008268832892 Rises=F Damp=F
 DIIS: error= 1.34D-03 at cycle  10 NSaved=   3.
 NSaved= 3 IEnMin= 3 EnMin= -25.0328182878218     IErMin= 3 ErrMin= 1.34D-03
 ErrMax= 1.34D-03  0.00D+00 EMaxC= 1.00D-01 BMatC= 1.15D-04 BMatP= 6.06D-03
 IDIUse=3 WtCom= 9.87D-01 WtEn= 1.34D-02
 Coeff-Com: -0.782D+01 0.754D+01 0.128D+01
 Coeff-En:   0.000D+00 0.000D+00 0.100D+01
 Coeff:     -0.772D+01 0.744D+01 0.127D+01
 Gap=     0.477 Goal=   None    Shift=    0.000
 Gap=     0.334 Goal=   None    Shift=    0.000
 DSYEVD-2 returned Info=         253 IAlg= 4 N=   126 NDim=   126 NE2=      702678 trying  DSYEV.
 RMSDP=7.15D-05 MaxDP=3.98D-03 DE=-8.27D-03 OVMax= 8.19D-03

 Cycle  11  Pass 1  IDiag  1:
 E= -25.0329167344368     Delta-E=       -0.000098446615 Rises=F Damp=F
 DIIS: error= 3.64D-04 at cycle  11 NSaved=   4.
 NSaved= 4 IEnMin= 4 EnMin= -25.0329167344368     IErMin= 4 ErrMin= 3.64D-04
 ErrMax= 3.64D-04  0.00D+00 EMaxC= 1.00D-01 BMatC= 1.33D-05 BMatP= 1.15D-04
 IDIUse=3 WtCom= 9.96D-01 WtEn= 3.64D-03
 Coeff-Com: -0.809D+00 0.774D+00-0.196D+00 0.123D+01
 Coeff-En:   0.000D+00 0.000D+00 0.000D+00 0.100D+01
 Coeff:     -0.806D+00 0.771D+00-0.195D+00 0.123D+01
 Gap=     0.474 Goal=   None    Shift=    0.000
 Gap=     0.335 Goal=   None    Shift=    0.000
 RMSDP=3.26D-05 MaxDP=1.82D-03 DE=-9.84D-05 OVMax= 3.64D-03

 Cycle  12  Pass 1  IDiag  1:
 E= -25.0329314336871     Delta-E=       -0.000014699250 Rises=F Damp=F
 DIIS: error= 1.29D-04 at cycle  12 NSaved=   5.
 NSaved= 5 IEnMin= 5 EnMin= -25.0329314336871     IErMin= 5 ErrMin= 1.29D-04
 ErrMax= 1.29D-04  0.00D+00 EMaxC= 1.00D-01 BMatC= 1.71D-06 BMatP= 1.33D-05
 IDIUse=3 WtCom= 9.99D-01 WtEn= 1.29D-03
 Coeff-Com:  0.752D+00-0.723D+00 0.547D-01-0.792D+00 0.171D+01
 Coeff-En:   0.000D+00 0.000D+00 0.000D+00 0.000D+00 0.100D+01
 Coeff:      0.751D+00-0.722D+00 0.546D-01-0.791D+00 0.171D+01
 Gap=     0.474 Goal=   None    Shift=    0.000
 Gap=     0.336 Goal=   None    Shift=    0.000
 RMSDP=1.70D-05 MaxDP=1.08D-03 DE=-1.47D-05 OVMax= 1.87D-03

 Cycle  13  Pass 1  IDiag  1:
 E= -25.0329340452454     Delta-E=       -0.000002611558 Rises=F Damp=F
 DIIS: error= 5.83D-05 at cycle  13 NSaved=   6.
 NSaved= 6 IEnMin= 6 EnMin= -25.0329340452454     IErMin= 6 ErrMin= 5.83D-05
 ErrMax= 5.83D-05  0.00D+00 EMaxC= 1.00D-01 BMatC= 1.87D-07 BMatP= 1.71D-06
 IDIUse=1 WtCom= 1.00D+00 WtEn= 0.00D+00
 Coeff-Com: -0.721D-01 0.696D-01-0.289D-01 0.272D+00-0.804D+00 0.156D+01
 Coeff:     -0.721D-01 0.696D-01-0.289D-01 0.272D+00-0.804D+00 0.156D+01
 Gap=     0.474 Goal=   None    Shift=    0.000
 Gap=     0.336 Goal=   None    Shift=    0.000
 RMSDP=4.62D-06 MaxDP=2.61D-04 DE=-2.61D-06 OVMax= 7.01D-04

 Cycle  14  Pass 1  IDiag  1:
 E= -25.0329343464240     Delta-E=       -0.000000301179 Rises=F Damp=F
 DIIS: error= 2.43D-05 at cycle  14 NSaved=   7.
 NSaved= 7 IEnMin= 7 EnMin= -25.0329343464240     IErMin= 7 ErrMin= 2.43D-05
 ErrMax= 2.43D-05  0.00D+00 EMaxC= 1.00D-01 BMatC= 2.94D-08 BMatP= 1.87D-07
 IDIUse=1 WtCom= 1.00D+00 WtEn= 0.00D+00
 Coeff-Com: -0.496D-01 0.478D-01 0.166D-01-0.112D+00 0.390D+00-0.114D+01
 Coeff-Com:  0.185D+01
 Coeff:     -0.496D-01 0.478D-01 0.166D-01-0.112D+00 0.390D+00-0.114D+01
 Coeff:      0.185D+01
 Gap=     0.474 Goal=   None    Shift=    0.000
 Gap=     0.336 Goal=   None    Shift=    0.000
 RMSDP=1.97D-06 MaxDP=8.96D-05 DE=-3.01D-07 OVMax= 3.38D-04

 Cycle  15  Pass 1  IDiag  1:
 E= -25.0329344037220     Delta-E=       -0.000000057298 Rises=F Damp=F
 DIIS: error= 7.65D-06 at cycle  15 NSaved=   8.
 NSaved= 8 IEnMin= 8 EnMin= -25.0329344037220     IErMin= 8 ErrMin= 7.65D-06
 ErrMax= 7.65D-06  0.00D+00 EMaxC= 1.00D-01 BMatC= 3.83D-09 BMatP= 2.94D-08
 IDIUse=1 WtCom= 1.00D+00 WtEn= 0.00D+00
 Coeff-Com:  0.308D-01-0.296D-01-0.967D-02 0.624D-01-0.230D+00 0.756D+00
 Coeff-Com: -0.158D+01 0.201D+01
 Coeff:      0.308D-01-0.296D-01-0.967D-02 0.624D-01-0.230D+00 0.756D+00
 Coeff:     -0.158D+01 0.201D+01
 Gap=     0.474 Goal=   None    Shift=    0.000
 Gap=     0.336 Goal=   None    Shift=    0.000
 RMSDP=9.50D-07 MaxDP=3.96D-05 DE=-5.73D-08 OVMax= 1.40D-04

 Cycle  16  Pass 1  IDiag  1:
 E= -25.0329344109051     Delta-E=       -0.000000007183 Rises=F Damp=F
 DIIS: error= 8.26D-07 at cycle  16 NSaved=   9.
 NSaved= 9 IEnMin= 9 EnMin= -25.0329344109051     IErMin= 9 ErrMin= 8.26D-07
 ErrMax= 8.26D-07  0.00D+00 EMaxC= 1.00D-01 BMatC= 5.25D-11 BMatP= 3.83D-09
 IDIUse=1 WtCom= 1.00D+00 WtEn= 0.00D+00
 Coeff-Com: -0.195D-03 0.190D-03 0.122D-02-0.111D-01 0.421D-01-0.140D+00
 Coeff-Com:  0.304D+00-0.468D+00 0.127D+01
 Coeff:     -0.195D-03 0.190D-03 0.122D-02-0.111D-01 0.421D-01-0.140D+00
 Coeff:      0.304D+00-0.468D+00 0.127D+01
 Gap=     0.474 Goal=   None    Shift=    0.000
 Gap=     0.336 Goal=   None    Shift=    0.000
 RMSDP=9.47D-08 MaxDP=3.82D-06 DE=-7.18D-09 OVMax= 1.09D-05

 Cycle  17  Pass 1  IDiag  1:
 E= -25.0329344109606     Delta-E=       -0.000000000056 Rises=F Damp=F
 DIIS: error= 8.31D-08 at cycle  17 NSaved=  10.
 NSaved=10 IEnMin=10 EnMin= -25.0329344109606     IErMin=10 ErrMin= 8.31D-08
 ErrMax= 8.31D-08  0.00D+00 EMaxC= 1.00D-01 BMatC= 8.34D-13 BMatP= 5.25D-11
 IDIUse=1 WtCom= 1.00D+00 WtEn= 0.00D+00
 Coeff-Com: -0.305D-03 0.293D-03-0.288D-03 0.301D-02-0.119D-01 0.400D-01
 Coeff-Com: -0.875D-01 0.139D+00-0.437D+00 0.136D+01
 Coeff:     -0.305D-03 0.293D-03-0.288D-03 0.301D-02-0.119D-01 0.400D-01
 Coeff:     -0.875D-01 0.139D+00-0.437D+00 0.136D+01
 Gap=     0.474 Goal=   None    Shift=    0.000
 Gap=     0.336 Goal=   None    Shift=    0.000
 RMSDP=9.12D-09 MaxDP=3.23D-07 DE=-5.55D-11 OVMax= 1.12D-06

 SCF Done:  E(UHF) =  -25.0329344110     A.U. after   17 cycles
            NFock= 17  Conv=0.91D-08     -V/T= 2.0000
 <Sx>= 0.0000 <Sy>= 0.0000 <Sz>= 0.0000 <S**2>= 1.0113 S= 0.6231
 <L.S>=  0.00000000000    
 KE= 2.503233537679D+01 PE=-5.884717670642D+01 EE= 8.309427266066D+00
 Annihilation of the first spin contaminant:
 S**2 before annihilation     1.0113,   after     0.0896
 Leave Link  502 at Sun May 22 10:56:26 2022, MaxMem=   104857600 cpu:               3.6 elap:               3.6
 (Enter /apps/software/g16/l601.exe)
 Copying SCF densities to generalized density rwf, IOpCl= 1 IROHF=0.

 **********************************************************************

            Population analysis using the SCF density.

 **********************************************************************

 Orbital symmetries:
 Alpha Orbitals:
       Occupied  (SG) (SG) (SG)
       Virtual   (PI) (PI) (SG) (SG) (SG) (PI) (PI) (SG) (PI) (PI)
                 (DLTA) (DLTA) (SG) (PI) (PI) (SG) (PI) (PI) (SG)
                 (SG) (SG) (PHI) (PHI) (DLTA) (DLTA) (PI) (PI)
                 (SG) (DLTA) (DLTA) (PI) (PI) (SG) (DLTA) (DLTA)
                 (PI) (PI) (SG) (PI) (PI) (SG) (PI) (PI) (SG) (?A)
                 (?A) (PHI) (PHI) (DLTA) (DLTA) (PI) (PI) (SG)
                 (DLTA) (DLTA) (SG) (PHI) (PHI) (PI) (PI) (DLTA)
                 (DLTA) (SG) (PI) (PI) (SG) (PHI) (PHI) (DLTA)
                 (DLTA) (PI) (PI) (SG) (SG) (DLTA) (DLTA) (PI)
                 (PI) (SG) (PI) (PI) (SG) (PI) (PI) (SG) (?A) (?A)
                 (PHI) (PHI) (DLTA) (DLTA) (DLTA) (DLTA) (PI) (PI)
                 (SG) (PI) (PI) (SG) (PHI) (PHI) (DLTA) (DLTA)
                 (PI) (PI) (SG) (PHI) (PHI) (DLTA) (DLTA) (PI)
                 (PI) (SG) (SG) (PI) (PI) (SG) (DLTA) (DLTA) (PI)
                 (PI) (SG) (SG)
 Beta  Orbitals:
       Occupied  (SG) (SG) (SG)
       Virtual   (SG) (PI) (PI) (SG) (SG) (PI) (PI) (SG) (PI) (PI)
                 (DLTA) (DLTA) (SG) (PI) (PI) (SG) (SG) (PI) (PI)
                 (SG) (SG) (PHI) (PHI) (DLTA) (DLTA) (PI) (PI)
                 (SG) (PI) (PI) (DLTA) (DLTA) (SG) (DLTA) (DLTA)
                 (PI) (PI) (SG) (PI) (PI) (SG) (SG) (PI) (PI) (?A)
                 (?A) (PHI) (PHI) (DLTA) (DLTA) (SG) (PI) (PI)
                 (SG) (PI) (PI) (DLTA) (DLTA) (SG) (PHI) (PHI)
                 (DLTA) (DLTA) (PI) (PI) (SG) (PHI) (PHI) (DLTA)
                 (DLTA) (PI) (PI) (SG) (SG) (DLTA) (DLTA) (PI)
                 (PI) (SG) (PI) (PI) (SG) (PI) (PI) (SG) (?A) (?A)
                 (PHI) (PHI) (DLTA) (DLTA) (PI) (PI) (SG) (DLTA)
                 (DLTA) (PI) (PI) (SG) (PHI) (PHI) (DLTA) (DLTA)
                 (PI) (PI) (SG) (PHI) (PHI) (DLTA) (DLTA) (PI)
                 (PI) (SG) (SG) (PI) (PI) (SG) (DLTA) (DLTA) (PI)
                 (PI) (SG) (SG)
 The electronic state is 1-SG.
 Alpha  occ. eigenvalues --   -7.68632  -0.49784  -0.44626
 Alpha virt. eigenvalues --    0.02743   0.02743   0.04273   0.05070   0.07237
 Alpha virt. eigenvalues --    0.08427   0.08427   0.11963   0.14486   0.14486
 Alpha virt. eigenvalues --    0.14574   0.14574   0.14905   0.18534   0.18534
 Alpha virt. eigenvalues --    0.23750   0.32051   0.32051   0.35276   0.35907
 Alpha virt. eigenvalues --    0.37241   0.46180   0.46180   0.47113   0.47113
 Alpha virt. eigenvalues --    0.47653   0.47653   0.48427   0.50166   0.50166
 Alpha virt. eigenvalues --    0.52312   0.52312   0.54944   0.61527   0.61527
 Alpha virt. eigenvalues --    0.62264   0.62264   0.64333   0.74915   0.74915
 Alpha virt. eigenvalues --    0.80384   1.06034   1.06034   1.11034   1.36974
 Alpha virt. eigenvalues --    1.36974   1.38445   1.38445   1.39490   1.39490
 Alpha virt. eigenvalues --    1.40152   1.40152   1.40389   1.41596   1.41596
 Alpha virt. eigenvalues --    1.42494   1.43978   1.43978   1.45446   1.45446
 Alpha virt. eigenvalues --    1.46371   1.46371   1.47592   1.47923   1.47923
 Alpha virt. eigenvalues --    1.49819   1.56068   1.56068   1.56093   1.56093
 Alpha virt. eigenvalues --    1.56229   1.56229   1.56502   1.59221   2.44989
 Alpha virt. eigenvalues --    2.44989   2.45234   2.45234   2.46016   2.55049
 Alpha virt. eigenvalues --    2.55049   2.59028   3.74439   3.74439   3.79094
 Alpha virt. eigenvalues --    3.92036   3.92036   3.94569   3.94569   3.96051
 Alpha virt. eigenvalues --    3.96051   3.96496   3.96496   3.97504   3.97504
 Alpha virt. eigenvalues --    3.97895   4.00179   4.00179   4.02593   4.08877
 Alpha virt. eigenvalues --    4.08877   4.12142   4.12142   4.14216   4.14216
 Alpha virt. eigenvalues --    4.15574   6.55313   6.55313   6.55320   6.55320
 Alpha virt. eigenvalues --    6.55344   6.55344   6.55397   7.39271   7.93027
 Alpha virt. eigenvalues --    7.93027   7.95810   8.38877   8.38877   8.39015
 Alpha virt. eigenvalues --    8.39015   8.39708  13.05253
  Beta  occ. eigenvalues --   -7.70147  -0.54531  -0.31878
  Beta virt. eigenvalues --    0.01683   0.02366   0.02366   0.05203   0.06827
  Beta virt. eigenvalues --    0.07729   0.07729   0.11268   0.14371   0.14371
  Beta virt. eigenvalues --    0.14566   0.14566   0.15158   0.20138   0.20138
  Beta virt. eigenvalues --    0.24603   0.27974   0.31234   0.31234   0.34553
  Beta virt. eigenvalues --    0.45707   0.46188   0.46188   0.46709   0.46709
  Beta virt. eigenvalues --    0.47021   0.47021   0.48533   0.49302   0.49302
  Beta virt. eigenvalues --    0.50056   0.50056   0.52187   0.62867   0.62867
  Beta virt. eigenvalues --    0.63526   0.63526   0.65624   0.81582   0.81582
  Beta virt. eigenvalues --    0.86160   1.03235   1.05096   1.05096   1.37001
  Beta virt. eigenvalues --    1.37001   1.37929   1.37929   1.38593   1.38593
  Beta virt. eigenvalues --    1.38967   1.38990   1.38990   1.39221   1.40561
  Beta virt. eigenvalues --    1.40561   1.41107   1.41107   1.42634   1.43913
  Beta virt. eigenvalues --    1.43913   1.44743   1.44743   1.45301   1.45301
  Beta virt. eigenvalues --    1.46883   1.57325   1.57325   1.57350   1.57350
  Beta virt. eigenvalues --    1.57466   1.57466   1.57779   1.70146   2.48938
  Beta virt. eigenvalues --    2.48938   2.49179   2.49179   2.50022   2.62540
  Beta virt. eigenvalues --    2.62540   2.66282   3.73720   3.73720   3.74078
  Beta virt. eigenvalues --    3.91966   3.91966   3.93479   3.93479   3.94560
  Beta virt. eigenvalues --    3.94560   3.95213   3.95213   3.95476   3.95601
  Beta virt. eigenvalues --    3.95601   3.96513   3.96513   3.97817   4.08608
  Beta virt. eigenvalues --    4.08608   4.09997   4.09997   4.10880   4.10880
  Beta virt. eigenvalues --    4.11822   6.58197   6.58197   6.58204   6.58204
  Beta virt. eigenvalues --    6.58228   6.58228   6.58280   7.47474   7.98826
  Beta virt. eigenvalues --    7.98826   8.01578   8.43101   8.43101   8.43238
  Beta virt. eigenvalues --    8.43238   8.43927  13.04075
          Condensed to atoms (all electrons):
               1          2
     1  B    4.999786   0.000107
     2  H    0.000107   1.000001
          Atomic-Atomic Spin Densities.
               1          2
     1  B   -0.999939  -0.000028
     2  H   -0.000028   0.999996
 Mulliken charges and spin densities:
               1          2
     1  B    0.000108  -0.999967
     2  H   -0.000108   0.999967
 Sum of Mulliken charges =  -0.00000  -0.00000
 Mulliken charges and spin densities with hydrogens summed into heavy atoms:
               1          2
     1  B   -0.000000  -0.000000
 Electronic spatial extent (au):  <R**2>=            112.1570
 Charge=             -0.0000 electrons
 Dipole moment (field-independent basis, Debye):
    X=              0.0000    Y=              0.0000    Z=              0.0074  Tot=              0.0074
 Quadrupole moment (field-independent basis, Debye-Ang):
   XX=             -7.3047   YY=             -7.3047   ZZ=            -10.7219
   XY=             -0.0000   XZ=              0.0000   YZ=              0.0000
 Traceless Quadrupole moment (field-independent basis, Debye-Ang):
   XX=              1.1391   YY=              1.1391   ZZ=             -2.2781
   XY=             -0.0000   XZ=              0.0000   YZ=              0.0000
 Octapole moment (field-independent basis, Debye-Ang**2):
  XXX=              0.0000  YYY=              0.0000  ZZZ=             -6.7793  XYY=              0.0000
  XXY=              0.0000  XXZ=              0.7289  XZZ=              0.0000  YZZ=              0.0000
  YYZ=              0.7289  XYZ=              0.0000
 Hexadecapole moment (field-independent basis, Debye-Ang**3):
 XXXX=            -10.7239 YYYY=            -10.7239 ZZZZ=           -248.8484 XXXY=             -0.0000
 XXXZ=              0.0000 YYYX=             -0.0000 YYYZ=              0.0000 ZZZX=              0.0000
 ZZZY=             -0.0000 XXYY=             -3.5746 XXZZ=            -39.8848 YYZZ=            -39.8848
 XXYZ=             -0.0000 YYXZ=              0.0000 ZZXY=             -0.0000
 N-N= 4.724796526071D-01 E-N=-5.884717711618D+01  KE= 2.503233537679D+01
 Symmetry A1   KE= 2.503233537679D+01
 Symmetry A2   KE= 5.136783387097D-30
 Symmetry B1   KE= 1.031346097598D-29
 Symmetry B2   KE= 1.396019111127D-29
 Symmetry A1   SP=-5.486613129466D-15
 Symmetry A2   SP=-3.724548490417D-31
 Symmetry B1   SP= 6.691070932898D-31
 Symmetry B2   SP=-8.035439606797D-31
                          Isotropic Fermi Contact Couplings
        Atom                 a.u.       MegaHertz       Gauss      10(-4) cm-1
     1  B(11)             -0.00232      -1.66511      -0.59415      -0.55542
     2  H(1)               0.29855     667.24063     238.08805     222.56752
 --------------------------------------------------------
       Center         ----  Spin Dipole Couplings  ----
                      3XX-RR        3YY-RR        3ZZ-RR
 --------------------------------------------------------
     1   Atom        0.330862      0.330862     -0.661724
     2   Atom        0.001019      0.001019     -0.002037
 --------------------------------------------------------
                        XY            XZ            YZ
 --------------------------------------------------------
     1   Atom        0.000000      0.000000      0.000000
     2   Atom        0.000000      0.000000      0.000000
 --------------------------------------------------------


 ---------------------------------------------------------------------------------
              Anisotropic Spin Dipole Couplings in Principal Axis System
 ---------------------------------------------------------------------------------

       Atom             a.u.   MegaHertz   Gauss  10(-4) cm-1        Axes

              Baa    -0.6617  -113.297   -40.427   -37.792  0.0000  0.0000  1.0000
     1 B(11)  Bbb     0.3309    56.648    20.214    18.896 -0.0000  1.0000  0.0000
              Bcc     0.3309    56.648    20.214    18.896  1.0000  0.0000  0.0000
 
              Baa    -0.0020    -1.087    -0.388    -0.363  0.0000  0.0000  1.0000
     2 H(1)   Bbb     0.0010     0.544     0.194     0.181 -0.0000  1.0000  0.0000
              Bcc     0.0010     0.544     0.194     0.181  1.0000  0.0000  0.0000
 

 ---------------------------------------------------------------------------------

 No NMR shielding tensors so no spin-rotation constants.
 Leave Link  601 at Sun May 22 10:56:27 2022, MaxMem=   104857600 cpu:               0.2 elap:               0.2
 (Enter /apps/software/g16/l801.exe)
 Range of M.O.s used for correlation:     1   126
 NBasis=   126 NAE=     3 NBE=     3 NFC=     0 NFV=     0
 NROrb=    126 NOA=     3 NOB=     3 NVA=   123 NVB=   123
 Leave Link  801 at Sun May 22 10:56:27 2022, MaxMem=   104857600 cpu:               0.0 elap:               0.0
 (Enter /apps/software/g16/l914.exe)
 UHF ground state
 Doing stability rather than CIS.
 Keep R1 and R2 ints in memory in symmetry-blocked form, NReq=40144005.
 FoFCou: FMM=F IPFlag=           0 FMFlag=           0 FMFlg1=           0
         NFxFlg=           0 DoJE=F BraDBF=F KetDBF=F FulRan=T
         wScrn=  0.000000 ICntrl=       600 IOpCl=  0 I1Cent=           0 NGrid=           0
         NMat0=    1 NMatS0=   8001 NMatT0=    0 NMatD0=    1 NMtDS0=    0 NMtDT0=    0
 Petite list used in FoFCou.
 MDV=   104857600 DFT=F DoStab=T Mixed=F DoRPA=F DoScal=F NonHer=F
 Making orbital integer symmetry assigments:
 Orbital symmetries:
 Alpha Orbitals:
       Occupied  (SG) (SG) (SG)
       Virtual   (PI) (PI) (SG) (SG) (SG) (PI) (PI) (SG) (PI) (PI)
                 (DLTA) (DLTA) (SG) (PI) (PI) (SG) (PI) (PI) (SG)
                 (SG) (SG) (PHI) (PHI) (DLTA) (DLTA) (PI) (PI)
                 (SG) (DLTA) (DLTA) (PI) (PI) (SG) (DLTA) (DLTA)
                 (PI) (PI) (SG) (PI) (PI) (SG) (PI) (PI) (SG) (?A)
                 (?A) (PHI) (PHI) (DLTA) (DLTA) (PI) (PI) (SG)
                 (DLTA) (DLTA) (SG) (PHI) (PHI) (PI) (PI) (DLTA)
                 (DLTA) (SG) (PI) (PI) (SG) (PHI) (PHI) (DLTA)
                 (DLTA) (PI) (PI) (SG) (SG) (DLTA) (DLTA) (PI)
                 (PI) (SG) (PI) (PI) (SG) (PI) (PI) (SG) (?A) (?A)
                 (PHI) (PHI) (DLTA) (DLTA) (DLTA) (DLTA) (PI) (PI)
                 (SG) (PI) (PI) (SG) (PHI) (PHI) (DLTA) (DLTA)
                 (PI) (PI) (SG) (PHI) (PHI) (DLTA) (DLTA) (PI)
                 (PI) (SG) (SG) (PI) (PI) (SG) (DLTA) (DLTA) (PI)
                 (PI) (SG) (SG)
 Beta  Orbitals:
       Occupied  (SG) (SG) (SG)
       Virtual   (SG) (PI) (PI) (SG) (SG) (PI) (PI) (SG) (PI) (PI)
                 (DLTA) (DLTA) (SG) (PI) (PI) (SG) (SG) (PI) (PI)
                 (SG) (SG) (PHI) (PHI) (DLTA) (DLTA) (PI) (PI)
                 (SG) (PI) (PI) (DLTA) (DLTA) (SG) (DLTA) (DLTA)
                 (PI) (PI) (SG) (PI) (PI) (SG) (SG) (PI) (PI) (?A)
                 (?A) (PHI) (PHI) (DLTA) (DLTA) (SG) (PI) (PI)
                 (SG) (PI) (PI) (DLTA) (DLTA) (SG) (PHI) (PHI)
                 (DLTA) (DLTA) (PI) (PI) (SG) (PHI) (PHI) (DLTA)
                 (DLTA) (PI) (PI) (SG) (SG) (DLTA) (DLTA) (PI)
                 (PI) (SG) (PI) (PI) (SG) (PI) (PI) (SG) (?A) (?A)
                 (PHI) (PHI) (DLTA) (DLTA) (PI) (PI) (SG) (DLTA)
                 (DLTA) (PI) (PI) (SG) (PHI) (PHI) (DLTA) (DLTA)
                 (PI) (PI) (SG) (PHI) (PHI) (DLTA) (DLTA) (PI)
                 (PI) (SG) (SG) (PI) (PI) (SG) (DLTA) (DLTA) (PI)
                 (PI) (SG) (SG)
    12 initial guesses have been made.
 Convergence on wavefunction:    0.001000000000000
 Davidson Disk Diagonalization:  ConvIn= 1.00D-03 SkipCon=T Conv= 1.00D-03.
 Max sub-space:  1476 roots to seek:    12 dimension of matrix:          738
 Iteration     1 Dimension    12 NMult     0 NNew     12
 CISAX will form    12 AO SS matrices at one time.
 NMat=    12 NSing=    12 JSym2X= 2.
 New state      1 was old state      2
 Excitation Energies [eV] at current iteration:
 Root      1 :     0.479564436372372
 Root      2 :     0.479564436372414
 Root      3 :     1.267781450720374
 Root      4 :     1.267781450720380
 Root      5 :     5.522999763335992
 Root      6 :     6.558184878576909
 Root      7 :     6.563388028532057
 Root      8 :     6.563388028532082
 Root      9 :    11.609473507121068
 Root     10 :    11.609473507121098
 Root     11 :    13.610589135296266
 Root     12 :    13.610589135296271
 Iteration     2 Dimension    24 NMult    12 NNew     12
 CISAX will form    12 AO SS matrices at one time.
 NMat=    12 NSing=    12 JSym2X= 2.
 Root      1 not converged, maximum delta is    0.060462559094798
 Excitation Energies [eV] at current iteration:
 Root      1 :     0.005961679274093   Change is   -0.473602757098278
 Root      2 :     0.005961679274142   Change is   -0.473602757098272
 Root      3 :     0.832161086025885   Change is   -0.435620364694495
 Root      4 :     0.832161086025933   Change is   -0.435620364694441
 Root      5 :     5.220418343730177   Change is   -0.302581419605815
 Root      6 :     6.103226070092937   Change is   -0.454958808483972
 Root      7 :     6.488598097628141   Change is   -0.074789930903941
 Root      8 :     6.488598097628171   Change is   -0.074789930903887
 Root      9 :     8.490373277026807   Change is   -3.119100230094262
 Root     10 :     8.490373277026885   Change is   -3.119100230094214
 Root     11 :    11.956011034218735   Change is   -1.654578101077531
 Root     12 :    11.956011034218806   Change is   -1.654578101077465
 Iteration     3 Dimension    27 NMult    24 NNew      3
 CISAX will form     3 AO SS matrices at one time.
 NMat=     3 NSing=     3 JSym2X= 2.
 Root      1 not converged, maximum delta is    0.412925627547963
 Excitation Energies [eV] at current iteration:
 Root      1 :     0.000143491043589   Change is   -0.005818188230504
 Root      2 :     0.000143492253184   Change is   -0.005818187020958
 Root      3 :     0.819505865499743   Change is   -0.012655220526141
 Iteration     4 Dimension    30 NMult    27 NNew      3
 CISAX will form     3 AO SS matrices at one time.
 NMat=     3 NSing=     3 JSym2X= 2.
 Root      1 has converged.
 Excitation Energies [eV] at current iteration:
 Root      1 :     0.000082127207229   Change is   -0.000061363836360
 Root      2 :     0.000082127660649   Change is   -0.000061364592534
 Root      3 :     0.819351417505247   Change is   -0.000154447994497
 Convergence achieved on expansion vectors.
 ***********************************************************************
 Stability analysis using <AA,BB:AA,BB> singles matrix:
 ***********************************************************************
 1PDM for each excited state written to RWF  633
 Ground to excited state transition densities written to RWF  633

 Eigenvectors of the stability matrix:
 
 Excited state symmetry could not be determined.
 Eigenvector   1:  2.272-?Sym  Eigenvalue= 0.0000030  <S**2>=1.041
      3B ->  5B       -0.54005
      3B ->  6B        0.42185
      3B ->  9B       -0.29504
      3B -> 10B        0.58345
      3B -> 21B       -0.16574
      3B -> 22B        0.23583
 The wavefunction is stable under the perturbations considered.
 Leave Link  914 at Sun May 22 10:56:30 2022, MaxMem=   104857600 cpu:               3.7 elap:               3.8
 (Enter /apps/software/g16/l508.exe)
 The wavefunction is already stable.
 Leave Link  508 at Sun May 22 10:56:30 2022, MaxMem=   104857600 cpu:               0.0 elap:               0.0
 (Enter /apps/software/g16/l601.exe)
 Copying SCF densities to generalized density rwf, IOpCl= 1 IROHF=0.

 **********************************************************************

            Population analysis using the SCF density.

 **********************************************************************

 Orbital symmetries:
 Alpha Orbitals:
       Occupied  (SG) (SG) (SG)
       Virtual   (PI) (PI) (SG) (SG) (SG) (PI) (PI) (SG) (PI) (PI)
                 (DLTA) (DLTA) (SG) (PI) (PI) (SG) (PI) (PI) (SG)
                 (SG) (SG) (PHI) (PHI) (DLTA) (DLTA) (PI) (PI)
                 (SG) (DLTA) (DLTA) (PI) (PI) (SG) (DLTA) (DLTA)
                 (PI) (PI) (SG) (PI) (PI) (SG) (PI) (PI) (SG) (?A)
                 (?A) (PHI) (PHI) (DLTA) (DLTA) (PI) (PI) (SG)
                 (DLTA) (DLTA) (SG) (PHI) (PHI) (PI) (PI) (DLTA)
                 (DLTA) (SG) (PI) (PI) (SG) (PHI) (PHI) (DLTA)
                 (DLTA) (PI) (PI) (SG) (SG) (DLTA) (DLTA) (PI)
                 (PI) (SG) (PI) (PI) (SG) (PI) (PI) (SG) (?A) (?A)
                 (PHI) (PHI) (DLTA) (DLTA) (DLTA) (DLTA) (PI) (PI)
                 (SG) (PI) (PI) (SG) (PHI) (PHI) (DLTA) (DLTA)
                 (PI) (PI) (SG) (PHI) (PHI) (DLTA) (DLTA) (PI)
                 (PI) (SG) (SG) (PI) (PI) (SG) (DLTA) (DLTA) (PI)
                 (PI) (SG) (SG)
 Beta  Orbitals:
       Occupied  (SG) (SG) (SG)
       Virtual   (SG) (PI) (PI) (SG) (SG) (PI) (PI) (SG) (PI) (PI)
                 (DLTA) (DLTA) (SG) (PI) (PI) (SG) (SG) (PI) (PI)
                 (SG) (SG) (PHI) (PHI) (DLTA) (DLTA) (PI) (PI)
                 (SG) (PI) (PI) (DLTA) (DLTA) (SG) (DLTA) (DLTA)
                 (PI) (PI) (SG) (PI) (PI) (SG) (SG) (PI) (PI) (?A)
                 (?A) (PHI) (PHI) (DLTA) (DLTA) (SG) (PI) (PI)
                 (SG) (PI) (PI) (DLTA) (DLTA) (SG) (PHI) (PHI)
                 (DLTA) (DLTA) (PI) (PI) (SG) (PHI) (PHI) (DLTA)
                 (DLTA) (PI) (PI) (SG) (SG) (DLTA) (DLTA) (PI)
                 (PI) (SG) (PI) (PI) (SG) (PI) (PI) (SG) (?A) (?A)
                 (PHI) (PHI) (DLTA) (DLTA) (PI) (PI) (SG) (DLTA)
                 (DLTA) (PI) (PI) (SG) (PHI) (PHI) (DLTA) (DLTA)
                 (PI) (PI) (SG) (PHI) (PHI) (DLTA) (DLTA) (PI)
                 (PI) (SG) (SG) (PI) (PI) (SG) (DLTA) (DLTA) (PI)
                 (PI) (SG) (SG)
 The electronic state is 1-SG.
 Alpha  occ. eigenvalues --   -7.68632  -0.49784  -0.44626
 Alpha virt. eigenvalues --    0.02743   0.02743   0.04273   0.05070   0.07237
 Alpha virt. eigenvalues --    0.08427   0.08427   0.11963   0.14486   0.14486
 Alpha virt. eigenvalues --    0.14574   0.14574   0.14905   0.18534   0.18534
 Alpha virt. eigenvalues --    0.23750   0.32051   0.32051   0.35276   0.35907
 Alpha virt. eigenvalues --    0.37241   0.46180   0.46180   0.47113   0.47113
 Alpha virt. eigenvalues --    0.47653   0.47653   0.48427   0.50166   0.50166
 Alpha virt. eigenvalues --    0.52312   0.52312   0.54944   0.61527   0.61527
 Alpha virt. eigenvalues --    0.62264   0.62264   0.64333   0.74915   0.74915
 Alpha virt. eigenvalues --    0.80384   1.06034   1.06034   1.11034   1.36974
 Alpha virt. eigenvalues --    1.36974   1.38445   1.38445   1.39490   1.39490
 Alpha virt. eigenvalues --    1.40152   1.40152   1.40389   1.41596   1.41596
 Alpha virt. eigenvalues --    1.42494   1.43978   1.43978   1.45446   1.45446
 Alpha virt. eigenvalues --    1.46371   1.46371   1.47592   1.47923   1.47923
 Alpha virt. eigenvalues --    1.49819   1.56068   1.56068   1.56093   1.56093
 Alpha virt. eigenvalues --    1.56229   1.56229   1.56502   1.59221   2.44989
 Alpha virt. eigenvalues --    2.44989   2.45234   2.45234   2.46016   2.55049
 Alpha virt. eigenvalues --    2.55049   2.59028   3.74439   3.74439   3.79094
 Alpha virt. eigenvalues --    3.92036   3.92036   3.94569   3.94569   3.96051
 Alpha virt. eigenvalues --    3.96051   3.96496   3.96496   3.97504   3.97504
 Alpha virt. eigenvalues --    3.97895   4.00179   4.00179   4.02593   4.08877
 Alpha virt. eigenvalues --    4.08877   4.12142   4.12142   4.14216   4.14216
 Alpha virt. eigenvalues --    4.15574   6.55313   6.55313   6.55320   6.55320
 Alpha virt. eigenvalues --    6.55344   6.55344   6.55397   7.39271   7.93027
 Alpha virt. eigenvalues --    7.93027   7.95810   8.38877   8.38877   8.39015
 Alpha virt. eigenvalues --    8.39015   8.39708  13.05253
  Beta  occ. eigenvalues --   -7.70147  -0.54531  -0.31878
  Beta virt. eigenvalues --    0.01683   0.02366   0.02366   0.05203   0.06827
  Beta virt. eigenvalues --    0.07729   0.07729   0.11268   0.14371   0.14371
  Beta virt. eigenvalues --    0.14566   0.14566   0.15158   0.20138   0.20138
  Beta virt. eigenvalues --    0.24603   0.27974   0.31234   0.31234   0.34553
  Beta virt. eigenvalues --    0.45707   0.46188   0.46188   0.46709   0.46709
  Beta virt. eigenvalues --    0.47021   0.47021   0.48533   0.49302   0.49302
  Beta virt. eigenvalues --    0.50056   0.50056   0.52187   0.62867   0.62867
  Beta virt. eigenvalues --    0.63526   0.63526   0.65624   0.81582   0.81582
  Beta virt. eigenvalues --    0.86160   1.03235   1.05096   1.05096   1.37001
  Beta virt. eigenvalues --    1.37001   1.37929   1.37929   1.38593   1.38593
  Beta virt. eigenvalues --    1.38967   1.38990   1.38990   1.39221   1.40561
  Beta virt. eigenvalues --    1.40561   1.41107   1.41107   1.42634   1.43913
  Beta virt. eigenvalues --    1.43913   1.44743   1.44743   1.45301   1.45301
  Beta virt. eigenvalues --    1.46883   1.57325   1.57325   1.57350   1.57350
  Beta virt. eigenvalues --    1.57466   1.57466   1.57779   1.70146   2.48938
  Beta virt. eigenvalues --    2.48938   2.49179   2.49179   2.50022   2.62540
  Beta virt. eigenvalues --    2.62540   2.66282   3.73720   3.73720   3.74078
  Beta virt. eigenvalues --    3.91966   3.91966   3.93479   3.93479   3.94560
  Beta virt. eigenvalues --    3.94560   3.95213   3.95213   3.95476   3.95601
  Beta virt. eigenvalues --    3.95601   3.96513   3.96513   3.97817   4.08608
  Beta virt. eigenvalues --    4.08608   4.09997   4.09997   4.10880   4.10880
  Beta virt. eigenvalues --    4.11822   6.58197   6.58197   6.58204   6.58204
  Beta virt. eigenvalues --    6.58228   6.58228   6.58280   7.47474   7.98826
  Beta virt. eigenvalues --    7.98826   8.01578   8.43101   8.43101   8.43238
  Beta virt. eigenvalues --    8.43238   8.43927  13.04075
          Condensed to atoms (all electrons):
               1          2
     1  B    4.999786   0.000107
     2  H    0.000107   1.000001
          Atomic-Atomic Spin Densities.
               1          2
     1  B   -0.999939  -0.000028
     2  H   -0.000028   0.999996
 Mulliken charges and spin densities:
               1          2
     1  B    0.000108  -0.999967
     2  H   -0.000108   0.999967
 Sum of Mulliken charges =  -0.00000  -0.00000
 Mulliken charges and spin densities with hydrogens summed into heavy atoms:
               1          2
     1  B   -0.000000  -0.000000
 Electronic spatial extent (au):  <R**2>=            112.1570
 Charge=             -0.0000 electrons
 Dipole moment (field-independent basis, Debye):
    X=              0.0000    Y=              0.0000    Z=              0.0074  Tot=              0.0074
 Quadrupole moment (field-independent basis, Debye-Ang):
   XX=             -7.3047   YY=             -7.3047   ZZ=            -10.7219
   XY=             -0.0000   XZ=              0.0000   YZ=              0.0000
 Traceless Quadrupole moment (field-independent basis, Debye-Ang):
   XX=              1.1391   YY=              1.1391   ZZ=             -2.2781
   XY=             -0.0000   XZ=              0.0000   YZ=              0.0000
 Octapole moment (field-independent basis, Debye-Ang**2):
  XXX=              0.0000  YYY=              0.0000  ZZZ=             -6.7793  XYY=              0.0000
  XXY=              0.0000  XXZ=              0.7289  XZZ=              0.0000  YZZ=              0.0000
  YYZ=              0.7289  XYZ=              0.0000
 Hexadecapole moment (field-independent basis, Debye-Ang**3):
 XXXX=            -10.7239 YYYY=            -10.7239 ZZZZ=           -248.8484 XXXY=             -0.0000
 XXXZ=              0.0000 YYYX=             -0.0000 YYYZ=              0.0000 ZZZX=              0.0000
 ZZZY=             -0.0000 XXYY=             -3.5746 XXZZ=            -39.8848 YYZZ=            -39.8848
 XXYZ=             -0.0000 YYXZ=              0.0000 ZZXY=             -0.0000
 N-N= 4.724796526071D-01 E-N=-5.884717711618D+01  KE= 2.503233537679D+01
 Symmetry A1   KE= 2.503233537679D+01
 Symmetry A2   KE= 5.136783387097D-30
 Symmetry B1   KE= 1.031346097598D-29
 Symmetry B2   KE= 1.396019111127D-29
 Symmetry A1   SP=-5.486613129466D-15
 Symmetry A2   SP=-3.724548490417D-31
 Symmetry B1   SP= 6.691070932898D-31
 Symmetry B2   SP=-8.035439606797D-31
                          Isotropic Fermi Contact Couplings
        Atom                 a.u.       MegaHertz       Gauss      10(-4) cm-1
     1  B(11)             -0.00232      -1.66511      -0.59415      -0.55542
     2  H(1)               0.29855     667.24063     238.08805     222.56752
 --------------------------------------------------------
       Center         ----  Spin Dipole Couplings  ----
                      3XX-RR        3YY-RR        3ZZ-RR
 --------------------------------------------------------
     1   Atom        0.330862      0.330862     -0.661724
     2   Atom        0.001019      0.001019     -0.002037
 --------------------------------------------------------
                        XY            XZ            YZ
 --------------------------------------------------------
     1   Atom        0.000000      0.000000      0.000000
     2   Atom        0.000000      0.000000      0.000000
 --------------------------------------------------------


 ---------------------------------------------------------------------------------
              Anisotropic Spin Dipole Couplings in Principal Axis System
 ---------------------------------------------------------------------------------

       Atom             a.u.   MegaHertz   Gauss  10(-4) cm-1        Axes

              Baa    -0.6617  -113.297   -40.427   -37.792  0.0000  0.0000  1.0000
     1 B(11)  Bbb     0.3309    56.648    20.214    18.896 -0.0000  1.0000  0.0000
              Bcc     0.3309    56.648    20.214    18.896  1.0000  0.0000  0.0000
 
              Baa    -0.0020    -1.087    -0.388    -0.363  0.0000  0.0000  1.0000
     2 H(1)   Bbb     0.0010     0.544     0.194     0.181 -0.0000  1.0000  0.0000
              Bcc     0.0010     0.544     0.194     0.181  1.0000  0.0000  0.0000
 

 ---------------------------------------------------------------------------------

 No NMR shielding tensors so no spin-rotation constants.
 Leave Link  601 at Sun May 22 10:56:31 2022, MaxMem=   104857600 cpu:               0.2 elap:               0.2
 (Enter /apps/software/g16/l9999.exe)
 1\1\GINC-CNODE16\Stability\UHF\Aug-CC-pVQZ\B1H1\LCZ\22-May-2022\0\\#p 
 UHF/aug-cc-pVQZ guess=mix stable=opt\\BH UHF at 5.6 Angstrom\\0,1\B,0,
 0.,0.,0.\H,0,5.6,0.,0.\\Version=ES64L-G16RevA.03\State=1-SG\HF=-25.032
 9344\S2=1.011269\S2-1=0.\S2A=0.089599\RMSD=9.120e-09\Dipole=-0.0029147
 ,0.,0.\Quadrupole=-1.6937417,0.8468709,0.8468709,0.,0.,0.\PG=C*V [C*(H
 1B1)]\\@


 THE MORE ACCURATE THE CALCULATIONS BECOME, THE MORE THE CONCEPTS
 TEND TO VANISH INTO THIN AIR.
     -- R.S. MULLIKEN, J.C.P. 43,S2(1965)
 Job cpu time:       0 days  0 hours  0 minutes  8.5 seconds.
 Elapsed time:       0 days  0 hours  0 minutes  8.5 seconds.
 File lengths (MBytes):  RWF=     29 Int=      0 D2E=      0 Chk=      4 Scr=      1
 Normal termination of Gaussian 16 at Sun May 22 10:56:31 2022.

Sender: Unischeduler System <lcz@mgt01>
Subject: Job 133854: <#!/bin/bash
#BSUB -J intel
#BSUB -o BH-5.6-UHF-G.out
#BSUB -n 8
#BSUB -q cqueue
#BSUB -R span[hosts=1]
export g16root=/apps/software
source /apps/software/g16/bsd/g16.profile
export GAUSS_SCRDIR=/scratch
/apps/software/g16/g16 < BH-5.6-UHF-G.inp > BH-5.6-UHF-G.out> Done

Job <#!/bin/bash
#BSUB -J intel
#BSUB -o BH-5.6-UHF-G.out
#BSUB -n 8
#BSUB -q cqueue
#BSUB -R span[hosts=1]
export g16root=/apps/software
source /apps/software/g16/bsd/g16.profile
export GAUSS_SCRDIR=/scratch
/apps/software/g16/g16 < BH-5.6-UHF-G.inp > BH-5.6-UHF-G.out> was submitted from host <mgt01> by user <lcz>.
Job was executed on host(s) <8*cnode16>, in queue <cqueue>, as user <lcz>.
</apps/users/lcz> was used as the home directory.
</apps/users/lcz/exe13/UMP2> was used as the working directory.
Started at 2022-05-22 10:56:22
Results reported at 2022-05-22 10:56:31

Your job looked like:

------------------------------------------------------------
# User input
#!/bin/bash
#BSUB -J intel
#BSUB -o BH-5.6-UHF-G.out
#BSUB -n 8
#BSUB -q cqueue
#BSUB -R span[hosts=1]
export g16root=/apps/software
source /apps/software/g16/bsd/g16.profile
export GAUSS_SCRDIR=/scratch
/apps/software/g16/g16 < BH-5.6-UHF-G.inp > BH-5.6-UHF-G.out
------------------------------------------------------------

Successfully completed.

Resource usage summary:

    CPU time   :            6.35 sec.
    Max Memory :               479 MB
    Max Processes  :               5


The output (if any) follows:

