 Entering Gaussian System, Link 0=/apps/software/g16/g16
 Initial command:
 /apps/software/g16/l1.exe "/scratch/Gau-341814.inp" -scrdir="/scratch/"
 Entering Link 1 = /apps/software/g16/l1.exe PID=    341815.
  
 Copyright (c) 1988,1990,1992,1993,1995,1998,2003,2009,2016,
            Gaussian, Inc.  All Rights Reserved.
  
 This is part of the Gaussian(R) 16 program.  It is based on
 the Gaussian(R) 09 system (copyright 2009, Gaussian, Inc.),
 the Gaussian(R) 03 system (copyright 2003, Gaussian, Inc.),
 the Gaussian(R) 98 system (copyright 1998, Gaussian, Inc.),
 the Gaussian(R) 94 system (copyright 1995, Gaussian, Inc.),
 the Gaussian 92(TM) system (copyright 1992, Gaussian, Inc.),
 the Gaussian 90(TM) system (copyright 1990, Gaussian, Inc.),
 the Gaussian 88(TM) system (copyright 1988, Gaussian, Inc.),
 the Gaussian 86(TM) system (copyright 1986, Carnegie Mellon
 University), and the Gaussian 82(TM) system (copyright 1983,
 Carnegie Mellon University). Gaussian is a federally registered
 trademark of Gaussian, Inc.
  
 This software contains proprietary and confidential information,
 including trade secrets, belonging to Gaussian, Inc.
  
 This software is provided under written license and may be
 used, copied, transmitted, or stored only in accord with that
 written license.
  
 The following legend is applicable only to US Government
 contracts under FAR:
  
                    RESTRICTED RIGHTS LEGEND
  
 Use, reproduction and disclosure by the US Government is
 subject to restrictions as set forth in subparagraphs (a)
 and (c) of the Commercial Computer Software - Restricted
 Rights clause in FAR 52.227-19.
  
 Gaussian, Inc.
 340 Quinnipiac St., Bldg. 40, Wallingford CT 06492
  
  
 ---------------------------------------------------------------
 Warning -- This program may not be used in any manner that
 competes with the business of Gaussian, Inc. or will provide
 assistance to any competitor of Gaussian, Inc.  The licensee
 of this program is prohibited from giving any competitor of
 Gaussian, Inc. access to this program.  By using this program,
 the user acknowledges that Gaussian, Inc. is engaged in the
 business of creating and licensing software in the field of
 computational chemistry and represents and warrants to the
 licensee that it is not a competitor of Gaussian, Inc. and that
 it will not use this program in any manner prohibited above.
 ---------------------------------------------------------------
  

 Cite this work as:
 Gaussian 16, Revision A.03,
 M. J. Frisch, G. W. Trucks, H. B. Schlegel, G. E. Scuseria, 
 M. A. Robb, J. R. Cheeseman, G. Scalmani, V. Barone, 
 G. A. Petersson, H. Nakatsuji, X. Li, M. Caricato, A. V. Marenich, 
 J. Bloino, B. G. Janesko, R. Gomperts, B. Mennucci, H. P. Hratchian, 
 J. V. Ortiz, A. F. Izmaylov, J. L. Sonnenberg, D. Williams-Young, 
 F. Ding, F. Lipparini, F. Egidi, J. Goings, B. Peng, A. Petrone, 
 T. Henderson, D. Ranasinghe, V. G. Zakrzewski, J. Gao, N. Rega, 
 G. Zheng, W. Liang, M. Hada, M. Ehara, K. Toyota, R. Fukuda, 
 J. Hasegawa, M. Ishida, T. Nakajima, Y. Honda, O. Kitao, H. Nakai, 
 T. Vreven, K. Throssell, J. A. Montgomery, Jr., J. E. Peralta, 
 F. Ogliaro, M. J. Bearpark, J. J. Heyd, E. N. Brothers, K. N. Kudin, 
 V. N. Staroverov, T. A. Keith, R. Kobayashi, J. Normand, 
 K. Raghavachari, A. P. Rendell, J. C. Burant, S. S. Iyengar, 
 J. Tomasi, M. Cossi, J. M. Millam, M. Klene, C. Adamo, R. Cammi, 
 J. W. Ochterski, R. L. Martin, K. Morokuma, O. Farkas, 
 J. B. Foresman, and D. J. Fox, Gaussian, Inc., Wallingford CT, 2016.
 
 ******************************************
 Gaussian 16:  ES64L-G16RevA.03 25-Dec-2016
                22-May-2022 
 ******************************************
 %chk=BH-5.2-UHF-G.chk
 ---------------------------------------
 #p UHF/aug-cc-pVQZ guess=mix stable=opt
 ---------------------------------------
 1/38=1,172=1/1;
 2/12=2,17=6,18=5,40=1/2;
 3/5=16,6=2,7=10,11=2,25=1,30=1,116=2/1,2,3;
 4/13=-1/1;
 5/5=2,38=5/2;
 6/7=2,8=2,9=2,10=2,28=1/1;
 8/6=1,10=90,11=11/1;
 9/8=-3,42=1,46=1/14;
 5/5=2,8=3,17=40,38=5/8(-2);
 6/7=2,8=2,9=2,10=2,28=1/1;
 99/5=1,9=1/99;
 Leave Link    1 at Sun May 22 10:55:54 2022, MaxMem=           0 cpu:               0.0 elap:               0.0
 (Enter /apps/software/g16/l101.exe)
 ----------------------
 BH UHF at 5.2 Angstrom
 ----------------------
 Symbolic Z-matrix:
 Charge =  0 Multiplicity = 1
 B                     0.        0.        0. 
 H                     5.2       0.        0. 
 
 ITRead=  0  0
 MicOpt= -1 -1
 NAtoms=      2 NQM=        2 NQMF=       0 NMMI=      0 NMMIF=      0
                NMic=       0 NMicF=      0.
                    Isotopes and Nuclear Properties:
 (Nuclear quadrupole moments (NQMom) in fm**2, nuclear magnetic moments (NMagM)
  in nuclear magnetons)

  Atom         1           2
 IAtWgt=          11           1
 AtmWgt=  11.0093053   1.0078250
 NucSpn=           3           1
 AtZEff=  -0.0000000  -0.0000000
 NQMom=    4.0590000   0.0000000
 NMagM=    2.6886370   2.7928460
 AtZNuc=   5.0000000   1.0000000
 Leave Link  101 at Sun May 22 10:55:54 2022, MaxMem=   104857600 cpu:               0.1 elap:               0.1
 (Enter /apps/software/g16/l202.exe)
                          Input orientation:                          
 ---------------------------------------------------------------------
 Center     Atomic      Atomic             Coordinates (Angstroms)
 Number     Number       Type             X           Y           Z
 ---------------------------------------------------------------------
      1          5           0        0.000000    0.000000    0.000000
      2          1           0        5.200000    0.000000    0.000000
 ---------------------------------------------------------------------
 Stoichiometry    BH
 Framework group  C*V[C*(HB)]
 Deg. of freedom     1
 Full point group                 C*V     NOp   4
 Largest Abelian subgroup         C2V     NOp   4
 Largest concise Abelian subgroup C1      NOp   1
                         Standard orientation:                         
 ---------------------------------------------------------------------
 Center     Atomic      Atomic             Coordinates (Angstroms)
 Number     Number       Type             X           Y           Z
 ---------------------------------------------------------------------
      1          5           0        0.000000    0.000000    0.866667
      2          1           0        0.000000    0.000000   -4.333333
 ---------------------------------------------------------------------
 Rotational constants (GHZ):           0.0000000          20.2425968          20.2425968
 Leave Link  202 at Sun May 22 10:55:54 2022, MaxMem=   104857600 cpu:               0.0 elap:               0.0
 (Enter /apps/software/g16/l301.exe)
 Standard basis: Aug-CC-pVQZ (5D, 7F)
 Ernie: Thresh=  0.10000D-02 Tol=  0.10000D-05 Strict=F.
 Ernie:  4 primitive shells out of 54 were deleted.
 There are    68 symmetry adapted cartesian basis functions of A1  symmetry.
 There are    18 symmetry adapted cartesian basis functions of A2  symmetry.
 There are    37 symmetry adapted cartesian basis functions of B1  symmetry.
 There are    37 symmetry adapted cartesian basis functions of B2  symmetry.
 There are    50 symmetry adapted basis functions of A1  symmetry.
 There are    16 symmetry adapted basis functions of A2  symmetry.
 There are    30 symmetry adapted basis functions of B1  symmetry.
 There are    30 symmetry adapted basis functions of B2  symmetry.
   126 basis functions,   180 primitive gaussians,   160 cartesian basis functions
     3 alpha electrons        3 beta electrons
       nuclear repulsion energy         0.5088242413 Hartrees.
 IExCor=    0 DFT=F Ex=HF Corr=None ExCW=0 ScaHFX=  1.000000
 ScaDFX=  1.000000  1.000000  1.000000  1.000000 ScalE2=  1.000000  1.000000
 IRadAn=      5 IRanWt=     -1 IRanGd=            0 ICorTp=0 IEmpDi=  4
 NAtoms=    2 NActive=    2 NUniq=    2 SFac= 1.00D+00 NAtFMM=   60 NAOKFM=F Big=F
 Integral buffers will be    131072 words long.
 Raffenetti 2 integral format.
 Two-electron integral symmetry is turned on.
 Leave Link  301 at Sun May 22 10:55:54 2022, MaxMem=   104857600 cpu:               0.1 elap:               0.1
 (Enter /apps/software/g16/l302.exe)
 NPDir=0 NMtPBC=     1 NCelOv=     1 NCel=       1 NClECP=     1 NCelD=      1
         NCelK=      1 NCelE2=     1 NClLst=     1 CellRange=     0.0.
 One-electron integrals computed using PRISM.
 One-electron integral symmetry used in STVInt
 NBasis=   126 RedAO= T EigKep=  1.23D-02  NBF=    50    16    30    30
 NBsUse=   126 1.00D-06 EigRej= -1.00D+00 NBFU=    50    16    30    30
 Leave Link  302 at Sun May 22 10:55:54 2022, MaxMem=   104857600 cpu:               0.1 elap:               0.1
 (Enter /apps/software/g16/l303.exe)
 DipDrv:  MaxL=1.
 Leave Link  303 at Sun May 22 10:55:54 2022, MaxMem=   104857600 cpu:               0.0 elap:               0.0
 (Enter /apps/software/g16/l401.exe)
 ExpMin= 1.88D-02 ExpMax= 2.39D+04 ExpMxC= 2.30D+02 IAcc=3 IRadAn=         5 AccDes= 0.00D+00
 Harris functional with IExCor=  205 and IRadAn=       5 diagonalized for initial guess.
 HarFok:  IExCor=  205 AccDes= 0.00D+00 IRadAn=         5 IDoV= 1 UseB2=F ITyADJ=14
 ICtDFT=  3500011 ScaDFX=  1.000000  1.000000  1.000000  1.000000
 FoFCou: FMM=F IPFlag=           0 FMFlag=      100000 FMFlg1=           0
         NFxFlg=           0 DoJE=T BraDBF=F KetDBF=T FulRan=T
         wScrn=  0.000000 ICntrl=       500 IOpCl=  0 I1Cent=   200000004 NGrid=           0
         NMat0=    1 NMatS0=      1 NMatT0=    0 NMatD0=    1 NMtDS0=    0 NMtDT0=    0
 Petite list used in FoFCou.
 Harris En= -24.9882028463655    
 JPrj=0 DoOrth=F DoCkMO=T.
 Mixing orbitals, IMix= 1 IMixAn=  0 NRI=1 NE=    3 Coef=  7.07106781D-01  7.07106781D-01
 Mixing orbitals, IMix= 1 IMixAn=  0 NRI=1 NE=    3 Coef= -7.07106781D-01  7.07106781D-01
 Initial guess orbital symmetries:
 Alpha Orbitals:
       Occupied  (SG) (SG) (SG)
       Virtual   (SG) (PI) (PI) (SG) (SG) (PI) (PI) (SG) (PI) (PI)
                 (SG) (DLTA) (DLTA) (PI) (PI) (SG) (PI) (PI) (SG)
                 (SG) (SG) (DLTA) (DLTA) (PI) (PI) (SG) (PI) (PI)
                 (DLTA) (DLTA) (PHI) (PHI) (SG) (DLTA) (DLTA) (PI)
                 (PI) (SG) (PI) (PI) (SG) (PI) (PI) (SG) (SG) (DLTA)
                 (DLTA) (PI) (PI) (SG) (DLTA) (?A) (DLTA) (?B)
                 (?B) (?A) (?B) (?B) (SG) (DLTA) (DLTA) (PHI) (PHI)
                 (PI) (PI) (SG) (SG) (PHI) (PHI) (DLTA) (DLTA)
                 (PI) (PI) (SG) (DLTA) (DLTA) (PI) (PI) (SG) (PI)
                 (PI) (SG) (PI) (PI) (SG) (DLTA) (DLTA) (PI) (PI)
                 (SG) (DLTA) (?A) (?B) (?B) (?A) (DLTA) (?B) (?B)
                 (SG) (DLTA) (PHI) (PHI) (DLTA) (PI) (PI) (SG)
                 (PHI) (PHI) (DLTA) (DLTA) (PI) (PI) (SG) (SG)
                 (PI) (PI) (SG) (DLTA) (DLTA) (PI) (PI) (SG) (SG)
 Beta  Orbitals:
       Occupied  (SG) (SG) (SG)
       Virtual   (SG) (PI) (PI) (SG) (SG) (PI) (PI) (SG) (PI) (PI)
                 (SG) (DLTA) (DLTA) (PI) (PI) (SG) (PI) (PI) (SG)
                 (SG) (SG) (DLTA) (DLTA) (PI) (PI) (SG) (PI) (PI)
                 (DLTA) (DLTA) (PHI) (PHI) (SG) (DLTA) (DLTA) (PI)
                 (PI) (SG) (PI) (PI) (SG) (PI) (PI) (SG) (SG) (DLTA)
                 (DLTA) (PI) (PI) (SG) (DLTA) (?A) (DLTA) (?B)
                 (?B) (?A) (?B) (?B) (SG) (DLTA) (DLTA) (PHI) (PHI)
                 (PI) (PI) (SG) (SG) (PHI) (PHI) (DLTA) (DLTA)
                 (PI) (PI) (SG) (DLTA) (DLTA) (PI) (PI) (SG) (PI)
                 (PI) (SG) (PI) (PI) (SG) (DLTA) (DLTA) (PI) (PI)
                 (SG) (DLTA) (?A) (?B) (?B) (?A) (DLTA) (?B) (?B)
                 (SG) (DLTA) (PHI) (PHI) (DLTA) (PI) (PI) (SG)
                 (PHI) (PHI) (DLTA) (DLTA) (PI) (PI) (SG) (SG)
                 (PI) (PI) (SG) (DLTA) (DLTA) (PI) (PI) (SG) (SG)
 The electronic state of the initial guess is 1-SG.
 Initial guess <Sx>= 0.0000 <Sy>= 0.0000 <Sz>= 0.0000 <S**2>= 1.0000 S= 0.6180
 Leave Link  401 at Sun May 22 10:55:55 2022, MaxMem=   104857600 cpu:               0.2 elap:               0.2
 (Enter /apps/software/g16/l502.exe)
 Keep R1 and R2 ints in memory in symmetry-blocked form, NReq=40143665.
 FoFCou: FMM=F IPFlag=           0 FMFlag=           0 FMFlg1=           0
         NFxFlg=           0 DoJE=F BraDBF=F KetDBF=F FulRan=T
         wScrn=  0.000000 ICntrl=       600 IOpCl=  0 I1Cent=           0 NGrid=           0
         NMat0=    1 NMatS0=   8001 NMatT0=    0 NMatD0=    1 NMtDS0=    0 NMtDT0=    0
 Petite list used in FoFCou.
 UHF open shell SCF:
 Using DIIS extrapolation, IDIIS=  1040.
 NGot=   104857600 LenX=    88563632 LenY=    88537591
 Requested convergence on RMS density matrix=1.00D-08 within 128 cycles.
 Requested convergence on MAX density matrix=1.00D-06.
 Requested convergence on             energy=1.00D-06.
 No special actions if energy rises.
 An orbital has undefined symmetry, so N**3 symmetry is turned off.

 Cycle   1  Pass 1  IDiag  1:
 E= -24.8242085016158    
 DIIS: error= 2.94D-02 at cycle   1 NSaved=   1.
 NSaved= 1 IEnMin= 1 EnMin= -24.8242085016158     IErMin= 1 ErrMin= 2.94D-02
 ErrMax= 2.94D-02  0.00D+00 EMaxC= 1.00D-01 BMatC= 1.47D-01 BMatP= 1.47D-01
 IDIUse=3 WtCom= 7.06D-01 WtEn= 2.94D-01
 Coeff-Com:  0.100D+01
 Coeff-En:   0.100D+01
 Coeff:      0.100D+01
 Gap=     0.104 Goal=   None    Shift=    0.000
 Gap=     0.109 Goal=   None    Shift=    0.000
 GapD=    0.104 DampG=1.000 DampE=0.500 DampFc=0.5000 IDamp=-1.
 Damping current iteration by 5.00D-01
 RMSDP=1.88D-03 MaxDP=8.84D-02              OVMax= 4.32D-01

 Cycle   2  Pass 1  IDiag  1:
 E= -24.8410183861197     Delta-E=       -0.016809884504 Rises=F Damp=T
 DIIS: error= 2.19D-02 at cycle   2 NSaved=   2.
 NSaved= 2 IEnMin= 2 EnMin= -24.8410183861197     IErMin= 2 ErrMin= 2.19D-02
 ErrMax= 2.19D-02  0.00D+00 EMaxC= 1.00D-01 BMatC= 5.08D-02 BMatP= 1.47D-01
 IDIUse=3 WtCom= 7.81D-01 WtEn= 2.19D-01
 Coeff-Com: -0.516D+00 0.152D+01
 Coeff-En:   0.000D+00 0.100D+01
 Coeff:     -0.403D+00 0.140D+01
 Gap=     0.067 Goal=   None    Shift=    0.000
 Gap=     0.050 Goal=   None    Shift=    0.000
 RMSDP=1.56D-03 MaxDP=6.72D-02 DE=-1.68D-02 OVMax= 5.18D-01

 Cycle   3  Pass 1  IDiag  1:
 E= -24.8671765212609     Delta-E=       -0.026158135141 Rises=F Damp=F
 DIIS: error= 4.13D-02 at cycle   3 NSaved=   3.
 NSaved= 3 IEnMin= 3 EnMin= -24.8671765212609     IErMin= 2 ErrMin= 2.19D-02
 ErrMax= 4.13D-02  0.00D+00 EMaxC= 1.00D-01 BMatC= 4.67D-02 BMatP= 5.08D-02
 IDIUse=3 WtCom= 5.87D-01 WtEn= 4.13D-01
 Coeff-Com: -0.474D+00 0.972D+00 0.501D+00
 Coeff-En:   0.000D+00 0.000D+00 0.100D+01
 Coeff:     -0.278D+00 0.570D+00 0.708D+00
 Gap=     0.175 Goal=   None    Shift=    0.000
 Gap=     0.119 Goal=   None    Shift=    0.000
 RMSDP=1.33D-03 MaxDP=6.50D-02 DE=-2.62D-02 OVMax= 3.89D-01

 Cycle   4  Pass 1  IDiag  1:
 E= -24.9607050237637     Delta-E=       -0.093528502503 Rises=F Damp=F
 DIIS: error= 3.00D-02 at cycle   4 NSaved=   4.
 NSaved= 4 IEnMin= 4 EnMin= -24.9607050237637     IErMin= 2 ErrMin= 2.19D-02
 ErrMax= 3.00D-02  0.00D+00 EMaxC= 1.00D-01 BMatC= 2.63D-02 BMatP= 4.67D-02
 IDIUse=3 WtCom= 7.00D-01 WtEn= 3.00D-01
 Coeff-Com: -0.657D+00 0.127D+01 0.714D+00-0.326D+00
 Coeff-En:   0.000D+00 0.000D+00 0.000D+00 0.100D+01
 Coeff:     -0.460D+00 0.888D+00 0.500D+00 0.717D-01
 Gap=     0.204 Goal=   None    Shift=    0.000
 Gap=     0.130 Goal=   None    Shift=    0.000
 RMSDP=3.19D-04 MaxDP=1.75D-02 DE=-9.35D-02 OVMax= 8.58D-02

 Cycle   5  Pass 1  IDiag  1:
 E= -24.9708244757867     Delta-E=       -0.010119452023 Rises=F Damp=F
 DIIS: error= 2.42D-02 at cycle   5 NSaved=   5.
 NSaved= 5 IEnMin= 5 EnMin= -24.9708244757867     IErMin= 2 ErrMin= 2.19D-02
 ErrMax= 2.42D-02  0.00D+00 EMaxC= 1.00D-01 BMatC= 2.87D-02 BMatP= 2.63D-02
 IDIUse=3 WtCom= 7.58D-01 WtEn= 2.42D-01
 Coeff-Com: -0.108D+01 0.210D+01 0.352D+00-0.393D+01 0.355D+01
 Coeff-En:   0.000D+00 0.000D+00 0.000D+00 0.000D+00 0.100D+01
 Coeff:     -0.820D+00 0.160D+01 0.267D+00-0.298D+01 0.294D+01
 Gap=     0.217 Goal=   None    Shift=    0.000
 Gap=     0.111 Goal=   None    Shift=    0.000
 RMSDP=4.93D-04 MaxDP=2.99D-02 DE=-1.01D-02 OVMax= 1.44D-01

 Cycle   6  Pass 1  IDiag  1:
 E= -24.9854154501506     Delta-E=       -0.014590974364 Rises=F Damp=F
 DIIS: error= 1.98D-02 at cycle   6 NSaved=   6.
 NSaved= 6 IEnMin= 6 EnMin= -24.9854154501506     IErMin= 6 ErrMin= 1.98D-02
 ErrMax= 1.98D-02  0.00D+00 EMaxC= 1.00D-01 BMatC= 3.30D-02 BMatP= 2.63D-02
 IDIUse=2 WtCom= 0.00D+00 WtEn= 1.00D+00
 Coeff-En:   0.000D+00 0.000D+00 0.000D+00 0.000D+00 0.000D+00 0.100D+01
 Coeff:      0.000D+00 0.000D+00 0.000D+00 0.000D+00 0.000D+00 0.100D+01
 Gap=     0.506 Goal=   None    Shift=    0.000
 Gap=     0.266 Goal=   None    Shift=    0.000
 RMSDP=1.04D-03 MaxDP=6.53D-02 DE=-1.46D-02 OVMax= 1.70D-01

 Cycle   7  Pass 1  IDiag  1:
 E= -25.0253812812576     Delta-E=       -0.039965831107 Rises=F Damp=F
 DIIS: error= 8.82D-03 at cycle   7 NSaved=   7.
 NSaved= 7 IEnMin= 7 EnMin= -25.0253812812576     IErMin= 7 ErrMin= 8.82D-03
 ErrMax= 8.82D-03  0.00D+00 EMaxC= 1.00D-01 BMatC= 5.98D-03 BMatP= 2.63D-02
 IDIUse=3 WtCom= 9.12D-01 WtEn= 8.82D-02
 Coeff-Com: -0.178D+00 0.322D+00 0.384D+00-0.392D+00 0.369D+00-0.875D+00
 Coeff-Com:  0.137D+01
 Coeff-En:   0.000D+00 0.000D+00 0.000D+00 0.000D+00 0.000D+00 0.000D+00
 Coeff-En:   0.100D+01
 Coeff:     -0.163D+00 0.293D+00 0.351D+00-0.357D+00 0.336D+00-0.798D+00
 Coeff:      0.134D+01
 Gap=     0.446 Goal=   None    Shift=    0.000
 Gap=     0.256 Goal=   None    Shift=    0.000
 RMSDP=3.80D-04 MaxDP=3.19D-02 DE=-4.00D-02 OVMax= 5.04D-02

 Cycle   8  Pass 1  IDiag  1:
 E= -25.0304172686752     Delta-E=       -0.005035987418 Rises=F Damp=F
 DIIS: error= 4.73D-03 at cycle   8 NSaved=   8.
 NSaved= 8 IEnMin= 8 EnMin= -25.0304172686752     IErMin= 8 ErrMin= 4.73D-03
 ErrMax= 4.73D-03  0.00D+00 EMaxC= 1.00D-01 BMatC= 2.17D-03 BMatP= 5.98D-03
 IDIUse=3 WtCom= 9.53D-01 WtEn= 4.73D-02
 Coeff-Com: -0.159D+00 0.288D+00 0.339D+00-0.300D+00 0.233D+00-0.726D+00
 Coeff-Com:  0.106D+01 0.264D+00
 Coeff-En:   0.000D+00 0.000D+00 0.000D+00 0.000D+00 0.000D+00 0.000D+00
 Coeff-En:   0.000D+00 0.100D+01
 Coeff:     -0.152D+00 0.274D+00 0.323D+00-0.286D+00 0.222D+00-0.691D+00
 Coeff:      0.101D+01 0.299D+00
 Gap=     0.453 Goal=   None    Shift=    0.000
 Gap=     0.265 Goal=   None    Shift=    0.000
 RMSDP=6.12D-05 MaxDP=4.37D-03 DE=-5.04D-03 OVMax= 1.02D-02

 Cycle   9  Pass 1  IDiag  1:
 E= -25.0310155090851     Delta-E=       -0.000598240410 Rises=F Damp=F
 DIIS: error= 4.12D-03 at cycle   9 NSaved=   9.
 NSaved= 9 IEnMin= 9 EnMin= -25.0310155090851     IErMin= 9 ErrMin= 4.12D-03
 ErrMax= 4.12D-03  0.00D+00 EMaxC= 1.00D-01 BMatC= 1.70D-03 BMatP= 2.17D-03
 IDIUse=3 WtCom= 9.59D-01 WtEn= 4.12D-02
 Large coefficients: NSaved=  9 BigCof=   14.60 CofMax=   10.00 Det=-7.86D-07
 Inversion failed.  Reducing to  8 matrices.
 Large coefficients: NSaved=  8 BigCof=   14.88 CofMax=   10.00 Det=-1.03D-06
 Inversion failed.  Reducing to  7 matrices.
 Large coefficients: NSaved=  7 BigCof=   14.85 CofMax=   10.00 Det=-1.03D-06
 Inversion failed.  Reducing to  6 matrices.
 Large coefficients: NSaved=  6 BigCof=   16.00 CofMax=   10.00 Det=-1.35D-06
 Inversion failed.  Reducing to  5 matrices.
 Large coefficients: NSaved=  5 BigCof=   15.50 CofMax=   10.00 Det=-1.52D-06
 Inversion failed.  Reducing to  4 matrices.
 Large coefficients: NSaved=  4 BigCof=   12.20 CofMax=   10.00 Det=-1.94D-06
 Inversion failed.  Reducing to  3 matrices.
 Large coefficients: NSaved=  3 BigCof=   12.72 CofMax=   10.00 Det=-2.17D-06
 Inversion failed.  Reducing to  2 matrices.
 Coeff-Com: -0.684D+01 0.784D+01
 Coeff-En:   0.000D+00 0.100D+01
 Coeff:     -0.655D+01 0.755D+01
 Gap=     0.527 Goal=   None    Shift=    0.000
 Gap=     0.341 Goal=   None    Shift=    0.000
 RMSDP=4.05D-04 MaxDP=2.50D-02 DE=-5.98D-04 OVMax= 5.93D-02

 Cycle  10  Pass 1  IDiag  1:
 E= -25.0328988257227     Delta-E=       -0.001883316638 Rises=F Damp=F
 DIIS: error= 5.00D-04 at cycle  10 NSaved=   3.
 NSaved= 3 IEnMin= 3 EnMin= -25.0328988257227     IErMin= 3 ErrMin= 5.00D-04
 ErrMax= 5.00D-04  0.00D+00 EMaxC= 1.00D-01 BMatC= 3.12D-05 BMatP= 1.70D-03
 IDIUse=3 WtCom= 9.95D-01 WtEn= 5.00D-03
 Coeff-Com:  0.319D+01-0.366D+01 0.147D+01
 Coeff-En:   0.000D+00 0.000D+00 0.100D+01
 Coeff:      0.318D+01-0.364D+01 0.147D+01
 Gap=     0.475 Goal=   None    Shift=    0.000
 Gap=     0.335 Goal=   None    Shift=    0.000
 RMSDP=5.33D-05 MaxDP=2.64D-03 DE=-1.88D-03 OVMax= 7.06D-03

 Cycle  11  Pass 1  IDiag  1:
 E= -25.0329333616862     Delta-E=       -0.000034535963 Rises=F Damp=F
 DIIS: error= 1.94D-04 at cycle  11 NSaved=   4.
 NSaved= 4 IEnMin= 4 EnMin= -25.0329333616862     IErMin= 4 ErrMin= 1.94D-04
 ErrMax= 1.94D-04  0.00D+00 EMaxC= 1.00D-01 BMatC= 2.87D-06 BMatP= 3.12D-05
 IDIUse=3 WtCom= 9.98D-01 WtEn= 1.94D-03
 Coeff-Com: -0.723D+00 0.808D+00-0.448D+00 0.136D+01
 Coeff-En:   0.000D+00 0.000D+00 0.000D+00 0.100D+01
 Coeff:     -0.722D+00 0.807D+00-0.447D+00 0.136D+01
 Gap=     0.474 Goal=   None    Shift=    0.000
 Gap=     0.336 Goal=   None    Shift=    0.000
 RMSDP=2.17D-05 MaxDP=1.48D-03 DE=-3.45D-05 OVMax= 2.28D-03

 Cycle  12  Pass 1  IDiag  1:
 E= -25.0329370662049     Delta-E=       -0.000003704519 Rises=F Damp=F
 DIIS: error= 4.62D-05 at cycle  12 NSaved=   5.
 NSaved= 5 IEnMin= 5 EnMin= -25.0329370662049     IErMin= 5 ErrMin= 4.62D-05
 ErrMax= 4.62D-05  0.00D+00 EMaxC= 1.00D-01 BMatC= 2.34D-07 BMatP= 2.87D-06
 IDIUse=1 WtCom= 1.00D+00 WtEn= 0.00D+00
 Coeff-Com: -0.224D+00 0.264D+00-0.871D-01-0.270D+00 0.132D+01
 Coeff:     -0.224D+00 0.264D+00-0.871D-01-0.270D+00 0.132D+01
 Gap=     0.474 Goal=   None    Shift=    0.000
 Gap=     0.336 Goal=   None    Shift=    0.000
 RMSDP=6.69D-06 MaxDP=5.13D-04 DE=-3.70D-06 OVMax= 5.57D-04

 Cycle  13  Pass 1  IDiag  1:
 E= -25.0329373425181     Delta-E=       -0.000000276313 Rises=F Damp=F
 DIIS: error= 1.10D-05 at cycle  13 NSaved=   6.
 NSaved= 6 IEnMin= 6 EnMin= -25.0329373425181     IErMin= 6 ErrMin= 1.10D-05
 ErrMax= 1.10D-05  0.00D+00 EMaxC= 1.00D-01 BMatC= 1.51D-08 BMatP= 2.34D-07
 IDIUse=1 WtCom= 1.00D+00 WtEn= 0.00D+00
 Coeff-Com:  0.732D-01-0.861D-01 0.274D-01 0.123D+00-0.662D+00 0.152D+01
 Coeff:      0.732D-01-0.861D-01 0.274D-01 0.123D+00-0.662D+00 0.152D+01
 Gap=     0.474 Goal=   None    Shift=    0.000
 Gap=     0.336 Goal=   None    Shift=    0.000
 RMSDP=1.24D-06 MaxDP=6.87D-05 DE=-2.76D-07 OVMax= 1.25D-04

 Cycle  14  Pass 1  IDiag  1:
 E= -25.0329373595723     Delta-E=       -0.000000017054 Rises=F Damp=F
 DIIS: error= 4.94D-06 at cycle  14 NSaved=   7.
 NSaved= 7 IEnMin= 7 EnMin= -25.0329373595723     IErMin= 7 ErrMin= 4.94D-06
 ErrMax= 4.94D-06  0.00D+00 EMaxC= 1.00D-01 BMatC= 1.59D-09 BMatP= 1.51D-08
 IDIUse=1 WtCom= 1.00D+00 WtEn= 0.00D+00
 Coeff-Com: -0.114D-01 0.135D-01-0.188D-02-0.533D-01 0.231D+00-0.639D+00
 Coeff-Com:  0.146D+01
 Coeff:     -0.114D-01 0.135D-01-0.188D-02-0.533D-01 0.231D+00-0.639D+00
 Coeff:      0.146D+01
 Gap=     0.474 Goal=   None    Shift=    0.000
 Gap=     0.336 Goal=   None    Shift=    0.000
 RMSDP=3.40D-07 MaxDP=1.36D-05 DE=-1.71D-08 OVMax= 5.28D-05

 Cycle  15  Pass 1  IDiag  1:
 E= -25.0329373619724     Delta-E=       -0.000000002400 Rises=F Damp=F
 DIIS: error= 2.72D-06 at cycle  15 NSaved=   8.
 NSaved= 8 IEnMin= 8 EnMin= -25.0329373619724     IErMin= 8 ErrMin= 2.72D-06
 ErrMax= 2.72D-06  0.00D+00 EMaxC= 1.00D-01 BMatC= 4.19D-10 BMatP= 1.59D-09
 IDIUse=1 WtCom= 1.00D+00 WtEn= 0.00D+00
 Coeff-Com: -0.608D-03 0.558D-03-0.289D-02 0.327D-01-0.110D+00 0.314D+00
 Coeff-Com: -0.136D+01 0.212D+01
 Coeff:     -0.608D-03 0.558D-03-0.289D-02 0.327D-01-0.110D+00 0.314D+00
 Coeff:     -0.136D+01 0.212D+01
 Gap=     0.474 Goal=   None    Shift=    0.000
 Gap=     0.336 Goal=   None    Shift=    0.000
 RMSDP=2.65D-07 MaxDP=1.28D-05 DE=-2.40D-09 OVMax= 4.81D-05

 Cycle  16  Pass 1  IDiag  1:
 E= -25.0329373628693     Delta-E=       -0.000000000897 Rises=F Damp=F
 DIIS: error= 4.78D-07 at cycle  16 NSaved=   9.
 NSaved= 9 IEnMin= 9 EnMin= -25.0329373628693     IErMin= 9 ErrMin= 4.78D-07
 ErrMax= 4.78D-07  0.00D+00 EMaxC= 1.00D-01 BMatC= 2.56D-11 BMatP= 4.19D-10
 IDIUse=1 WtCom= 1.00D+00 WtEn= 0.00D+00
 Coeff-Com:  0.826D-03-0.918D-03 0.116D-02-0.916D-02 0.269D-01-0.705D-01
 Coeff-Com:  0.425D+00-0.956D+00 0.158D+01
 Coeff:      0.826D-03-0.918D-03 0.116D-02-0.916D-02 0.269D-01-0.705D-01
 Coeff:      0.425D+00-0.956D+00 0.158D+01
 Gap=     0.474 Goal=   None    Shift=    0.000
 Gap=     0.336 Goal=   None    Shift=    0.000
 RMSDP=7.40D-08 MaxDP=3.17D-06 DE=-8.97D-10 OVMax= 1.24D-05

 Cycle  17  Pass 1  IDiag  1:
 E= -25.0329373629157     Delta-E=       -0.000000000046 Rises=F Damp=F
 DIIS: error= 4.01D-08 at cycle  17 NSaved=  10.
 NSaved=10 IEnMin=10 EnMin= -25.0329373629157     IErMin=10 ErrMin= 4.01D-08
 ErrMax= 4.01D-08  0.00D+00 EMaxC= 1.00D-01 BMatC= 1.61D-13 BMatP= 2.56D-11
 IDIUse=1 WtCom= 1.00D+00 WtEn= 0.00D+00
 Coeff-Com: -0.105D-04 0.509D-05-0.174D-03 0.197D-02-0.636D-02 0.172D-01
 Coeff-Com: -0.100D+00 0.228D+00-0.414D+00 0.127D+01
 Coeff:     -0.105D-04 0.509D-05-0.174D-03 0.197D-02-0.636D-02 0.172D-01
 Coeff:     -0.100D+00 0.228D+00-0.414D+00 0.127D+01
 Gap=     0.474 Goal=   None    Shift=    0.000
 Gap=     0.336 Goal=   None    Shift=    0.000
 RMSDP=3.91D-09 MaxDP=1.76D-07 DE=-4.63D-11 OVMax= 5.79D-07

 SCF Done:  E(UHF) =  -25.0329373629     A.U. after   17 cycles
            NFock= 17  Conv=0.39D-08     -V/T= 2.0000
 <Sx>= 0.0000 <Sy>= 0.0000 <Sz>= 0.0000 <S**2>= 1.0112 S= 0.6230
 <L.S>=  0.00000000000    
 KE= 2.503231335352D+01 PE=-5.892026225027D+01 EE= 8.346187292559D+00
 Annihilation of the first spin contaminant:
 S**2 before annihilation     1.0112,   after     0.0896
 Leave Link  502 at Sun May 22 10:55:58 2022, MaxMem=   104857600 cpu:               3.7 elap:               3.7
 (Enter /apps/software/g16/l601.exe)
 Copying SCF densities to generalized density rwf, IOpCl= 1 IROHF=0.

 **********************************************************************

            Population analysis using the SCF density.

 **********************************************************************

 Orbital symmetries:
 Alpha Orbitals:
       Occupied  (SG) (SG) (SG)
       Virtual   (PI) (PI) (SG) (SG) (SG) (PI) (PI) (SG) (PI) (PI)
                 (DLTA) (DLTA) (SG) (PI) (PI) (SG) (PI) (PI) (SG)
                 (SG) (SG) (PHI) (PHI) (DLTA) (DLTA) (PI) (PI)
                 (SG) (DLTA) (DLTA) (PI) (PI) (SG) (DLTA) (DLTA)
                 (PI) (PI) (SG) (PI) (PI) (SG) (PI) (PI) (SG) (?A)
                 (?A) (PHI) (PHI) (DLTA) (DLTA) (PI) (PI) (SG)
                 (DLTA) (DLTA) (SG) (PHI) (PHI) (PI) (PI) (DLTA)
                 (DLTA) (SG) (PI) (PI) (SG) (PHI) (PHI) (DLTA)
                 (DLTA) (PI) (PI) (SG) (SG) (DLTA) (DLTA) (PI)
                 (PI) (SG) (PI) (PI) (SG) (PI) (PI) (SG) (?A) (?A)
                 (PHI) (PHI) (DLTA) (DLTA) (DLTA) (DLTA) (PI) (PI)
                 (SG) (PI) (PI) (SG) (PHI) (PHI) (DLTA) (DLTA)
                 (PI) (PI) (SG) (PHI) (PHI) (DLTA) (DLTA) (PI)
                 (PI) (SG) (SG) (PI) (PI) (SG) (DLTA) (DLTA) (PI)
                 (PI) (SG) (SG)
 Beta  Orbitals:
       Occupied  (SG) (SG) (SG)
       Virtual   (SG) (PI) (PI) (SG) (SG) (PI) (PI) (SG) (PI) (PI)
                 (DLTA) (DLTA) (SG) (PI) (PI) (SG) (SG) (PI) (PI)
                 (SG) (SG) (PHI) (PHI) (DLTA) (DLTA) (PI) (PI)
                 (SG) (PI) (PI) (DLTA) (DLTA) (SG) (DLTA) (DLTA)
                 (PI) (PI) (SG) (PI) (PI) (SG) (SG) (PI) (PI) (?A)
                 (?A) (PHI) (PHI) (DLTA) (DLTA) (PI) (PI) (SG)
                 (SG) (PI) (PI) (DLTA) (DLTA) (SG) (PHI) (PHI)
                 (DLTA) (DLTA) (PI) (PI) (SG) (PHI) (PHI) (DLTA)
                 (DLTA) (PI) (PI) (SG) (SG) (DLTA) (DLTA) (PI)
                 (PI) (SG) (PI) (PI) (SG) (PI) (PI) (SG) (?A) (?A)
                 (PHI) (PHI) (DLTA) (DLTA) (PI) (PI) (SG) (DLTA)
                 (DLTA) (PI) (PI) (SG) (PHI) (PHI) (DLTA) (DLTA)
                 (PI) (PI) (SG) (PHI) (PHI) (DLTA) (DLTA) (PI)
                 (PI) (SG) (SG) (PI) (PI) (SG) (DLTA) (DLTA) (PI)
                 (PI) (SG) (SG)
 The electronic state is 1-SG.
 Alpha  occ. eigenvalues --   -7.68635  -0.49731  -0.44628
 Alpha virt. eigenvalues --    0.02739   0.02739   0.04334   0.05080   0.07343
 Alpha virt. eigenvalues --    0.08427   0.08427   0.11845   0.14320   0.14320
 Alpha virt. eigenvalues --    0.14573   0.14573   0.15630   0.19070   0.19070
 Alpha virt. eigenvalues --    0.24527   0.32032   0.32032   0.34734   0.35950
 Alpha virt. eigenvalues --    0.37919   0.46179   0.46179   0.47103   0.47103
 Alpha virt. eigenvalues --    0.47515   0.47515   0.48910   0.50158   0.50158
 Alpha virt. eigenvalues --    0.52368   0.52368   0.55870   0.61597   0.61597
 Alpha virt. eigenvalues --    0.62988   0.62988   0.65877   0.75331   0.75331
 Alpha virt. eigenvalues --    0.82231   1.06027   1.06027   1.11756   1.36972
 Alpha virt. eigenvalues --    1.36972   1.38444   1.38444   1.39488   1.39488
 Alpha virt. eigenvalues --    1.40157   1.40157   1.40449   1.41594   1.41594
 Alpha virt. eigenvalues --    1.42484   1.43976   1.43976   1.45530   1.45530
 Alpha virt. eigenvalues --    1.46366   1.46366   1.47325   1.47961   1.47961
 Alpha virt. eigenvalues --    1.50623   1.56111   1.56111   1.56158   1.56158
 Alpha virt. eigenvalues --    1.56517   1.56517   1.56858   1.60985   2.45046
 Alpha virt. eigenvalues --    2.45046   2.45532   2.45532   2.46815   2.55353
 Alpha virt. eigenvalues --    2.55353   2.60650   3.74434   3.74434   3.79602
 Alpha virt. eigenvalues --    3.92034   3.92034   3.94567   3.94567   3.96050
 Alpha virt. eigenvalues --    3.96050   3.96495   3.96495   3.97504   3.97504
 Alpha virt. eigenvalues --    3.97964   4.00253   4.00253   4.02629   4.08874
 Alpha virt. eigenvalues --    4.08874   4.12140   4.12140   4.14303   4.14303
 Alpha virt. eigenvalues --    4.16470   6.55363   6.55363   6.55375   6.55375
 Alpha virt. eigenvalues --    6.55428   6.55428   6.55550   7.39855   7.93261
 Alpha virt. eigenvalues --    7.93261   7.96776   8.38933   8.38933   8.39216
 Alpha virt. eigenvalues --    8.39216   8.40482  13.05347
  Beta  occ. eigenvalues --   -7.70150  -0.54533  -0.31880
  Beta virt. eigenvalues --    0.01750   0.02364   0.02364   0.05149   0.07066
  Beta virt. eigenvalues --    0.07729   0.07729   0.11098   0.14278   0.14278
  Beta virt. eigenvalues --    0.14565   0.14565   0.15955   0.20609   0.20609
  Beta virt. eigenvalues --    0.24556   0.29125   0.31214   0.31214   0.34471
  Beta virt. eigenvalues --    0.45199   0.46186   0.46186   0.46700   0.46700
  Beta virt. eigenvalues --    0.46939   0.46939   0.49146   0.49377   0.49377
  Beta virt. eigenvalues --    0.50048   0.50048   0.53408   0.62935   0.62935
  Beta virt. eigenvalues --    0.64223   0.64223   0.67323   0.81944   0.81944
  Beta virt. eigenvalues --    0.87557   1.04334   1.05089   1.05089   1.37000
  Beta virt. eigenvalues --    1.37000   1.37928   1.37928   1.38591   1.38591
  Beta virt. eigenvalues --    1.39009   1.39009   1.39062   1.39303   1.40643
  Beta virt. eigenvalues --    1.40643   1.41105   1.41105   1.42426   1.43912
  Beta virt. eigenvalues --    1.43912   1.44739   1.44739   1.45385   1.45385
  Beta virt. eigenvalues --    1.47939   1.57369   1.57369   1.57413   1.57413
  Beta virt. eigenvalues --    1.57709   1.57709   1.58500   1.71047   2.48994
  Beta virt. eigenvalues --    2.48994   2.49476   2.49476   2.50885   2.62829
  Beta virt. eigenvalues --    2.62829   2.67762   3.73716   3.73716   3.74643
  Beta virt. eigenvalues --    3.91964   3.91964   3.93477   3.93477   3.94558
  Beta virt. eigenvalues --    3.94558   3.95223   3.95223   3.95566   3.95601
  Beta virt. eigenvalues --    3.95601   3.96580   3.96580   3.97839   4.08606
  Beta virt. eigenvalues --    4.08606   4.09995   4.09995   4.10969   4.10969
  Beta virt. eigenvalues --    4.12696   6.58248   6.58248   6.58259   6.58259
  Beta virt. eigenvalues --    6.58312   6.58312   6.58433   7.48050   7.99058
  Beta virt. eigenvalues --    7.99058   8.02533   8.43157   8.43157   8.43438
  Beta virt. eigenvalues --    8.43438   8.44697  13.04169
          Condensed to atoms (all electrons):
               1          2
     1  B    4.999826   0.000021
     2  H    0.000021   1.000133
          Atomic-Atomic Spin Densities.
               1          2
     1  B   -1.000033  -0.000045
     2  H   -0.000045   1.000123
 Mulliken charges and spin densities:
               1          2
     1  B    0.000154  -1.000078
     2  H   -0.000154   1.000078
 Sum of Mulliken charges =  -0.00000   0.00000
 Mulliken charges and spin densities with hydrogens summed into heavy atoms:
               1          2
     1  B   -0.000000   0.000000
 Electronic spatial extent (au):  <R**2>=             99.3126
 Charge=             -0.0000 electrons
 Dipole moment (field-independent basis, Debye):
    X=              0.0000    Y=             -0.0000    Z=              0.0105  Tot=              0.0105
 Quadrupole moment (field-independent basis, Debye-Ang):
   XX=             -7.3054   YY=             -7.3054   ZZ=            -10.7358
   XY=              0.0000   XZ=              0.0000   YZ=              0.0000
 Traceless Quadrupole moment (field-independent basis, Debye-Ang):
   XX=              1.1435   YY=              1.1435   ZZ=             -2.2870
   XY=              0.0000   XZ=              0.0000   YZ=              0.0000
 Octapole moment (field-independent basis, Debye-Ang**2):
  XXX=              0.0000  YYY=             -0.0000  ZZZ=             -6.1932  XYY=              0.0000
  XXY=             -0.0000  XXZ=              0.6809  XZZ=              0.0000  YZZ=             -0.0000
  YYZ=              0.6809  XYZ=              0.0000
 Hexadecapole moment (field-independent basis, Debye-Ang**3):
 XXXX=            -10.7281 YYYY=            -10.7281 ZZZZ=           -218.0811 XXXY=              0.0000
 XXXZ=              0.0000 YYYX=              0.0000 YYYZ=             -0.0000 ZZZX=              0.0000
 ZZZY=              0.0000 XXYY=             -3.5760 XXZZ=            -35.1432 YYZZ=            -35.1432
 XXYZ=             -0.0000 YYXZ=              0.0000 ZZXY=             -0.0000
 N-N= 5.088242412692D-01 E-N=-5.892026219997D+01  KE= 2.503231335352D+01
 Symmetry A1   KE= 2.503231335352D+01
 Symmetry A2   KE= 7.713399547964D-30
 Symmetry B1   KE= 1.366591141571D-29
 Symmetry B2   KE= 1.633562695820D-29
 Symmetry A1   SP= 7.339711192633D-15
 Symmetry A2   SP=-3.752796251208D-31
 Symmetry B1   SP=-6.107660866117D-31
 Symmetry B2   SP=-2.018072105729D-30
                          Isotropic Fermi Contact Couplings
        Atom                 a.u.       MegaHertz       Gauss      10(-4) cm-1
     1  B(11)             -0.00228      -1.63612      -0.58381      -0.54575
     2  H(1)               0.29854     667.22081     238.08098     222.56091
 --------------------------------------------------------
       Center         ----  Spin Dipole Couplings  ----
                      3XX-RR        3YY-RR        3ZZ-RR
 --------------------------------------------------------
     1   Atom        0.330631      0.330631     -0.661262
     2   Atom        0.001305      0.001305     -0.002609
 --------------------------------------------------------
                        XY            XZ            YZ
 --------------------------------------------------------
     1   Atom        0.000000      0.000000      0.000000
     2   Atom        0.000000      0.000000      0.000000
 --------------------------------------------------------


 ---------------------------------------------------------------------------------
              Anisotropic Spin Dipole Couplings in Principal Axis System
 ---------------------------------------------------------------------------------

       Atom             a.u.   MegaHertz   Gauss  10(-4) cm-1        Axes

              Baa    -0.6613  -113.218   -40.399   -37.765  0.0000  0.0000  1.0000
     1 B(11)  Bbb     0.3306    56.609    20.199    18.883 -0.0000  1.0000  0.0000
              Bcc     0.3306    56.609    20.199    18.883  1.0000  0.0000  0.0000
 
              Baa    -0.0026    -1.392    -0.497    -0.464  0.0000  0.0000  1.0000
     2 H(1)   Bbb     0.0013     0.696     0.248     0.232 -0.0000  1.0000  0.0000
              Bcc     0.0013     0.696     0.248     0.232  1.0000  0.0000  0.0000
 

 ---------------------------------------------------------------------------------

 No NMR shielding tensors so no spin-rotation constants.
 Leave Link  601 at Sun May 22 10:55:59 2022, MaxMem=   104857600 cpu:               0.2 elap:               0.2
 (Enter /apps/software/g16/l801.exe)
 Range of M.O.s used for correlation:     1   126
 NBasis=   126 NAE=     3 NBE=     3 NFC=     0 NFV=     0
 NROrb=    126 NOA=     3 NOB=     3 NVA=   123 NVB=   123
 Leave Link  801 at Sun May 22 10:55:59 2022, MaxMem=   104857600 cpu:               0.0 elap:               0.0
 (Enter /apps/software/g16/l914.exe)
 UHF ground state
 Doing stability rather than CIS.
 Keep R1 and R2 ints in memory in symmetry-blocked form, NReq=40144005.
 FoFCou: FMM=F IPFlag=           0 FMFlag=           0 FMFlg1=           0
         NFxFlg=           0 DoJE=F BraDBF=F KetDBF=F FulRan=T
         wScrn=  0.000000 ICntrl=       600 IOpCl=  0 I1Cent=           0 NGrid=           0
         NMat0=    1 NMatS0=   8001 NMatT0=    0 NMatD0=    1 NMtDS0=    0 NMtDT0=    0
 Petite list used in FoFCou.
 MDV=   104857600 DFT=F DoStab=T Mixed=F DoRPA=F DoScal=F NonHer=F
 Making orbital integer symmetry assigments:
 Orbital symmetries:
 Alpha Orbitals:
       Occupied  (SG) (SG) (SG)
       Virtual   (PI) (PI) (SG) (SG) (SG) (PI) (PI) (SG) (PI) (PI)
                 (DLTA) (DLTA) (SG) (PI) (PI) (SG) (PI) (PI) (SG)
                 (SG) (SG) (PHI) (PHI) (DLTA) (DLTA) (PI) (PI)
                 (SG) (DLTA) (DLTA) (PI) (PI) (SG) (DLTA) (DLTA)
                 (PI) (PI) (SG) (PI) (PI) (SG) (PI) (PI) (SG) (?A)
                 (?A) (PHI) (PHI) (DLTA) (DLTA) (PI) (PI) (SG)
                 (DLTA) (DLTA) (SG) (PHI) (PHI) (PI) (PI) (DLTA)
                 (DLTA) (SG) (PI) (PI) (SG) (PHI) (PHI) (DLTA)
                 (DLTA) (PI) (PI) (SG) (SG) (DLTA) (DLTA) (PI)
                 (PI) (SG) (PI) (PI) (SG) (PI) (PI) (SG) (?A) (?A)
                 (PHI) (PHI) (DLTA) (DLTA) (DLTA) (DLTA) (PI) (PI)
                 (SG) (PI) (PI) (SG) (PHI) (PHI) (DLTA) (DLTA)
                 (PI) (PI) (SG) (PHI) (PHI) (DLTA) (DLTA) (PI)
                 (PI) (SG) (SG) (PI) (PI) (SG) (DLTA) (DLTA) (PI)
                 (PI) (SG) (SG)
 Beta  Orbitals:
       Occupied  (SG) (SG) (SG)
       Virtual   (SG) (PI) (PI) (SG) (SG) (PI) (PI) (SG) (PI) (PI)
                 (DLTA) (DLTA) (SG) (PI) (PI) (SG) (SG) (PI) (PI)
                 (SG) (SG) (PHI) (PHI) (DLTA) (DLTA) (PI) (PI)
                 (SG) (PI) (PI) (DLTA) (DLTA) (SG) (DLTA) (DLTA)
                 (PI) (PI) (SG) (PI) (PI) (SG) (SG) (PI) (PI) (?A)
                 (?A) (PHI) (PHI) (DLTA) (DLTA) (PI) (PI) (SG)
                 (SG) (PI) (PI) (DLTA) (DLTA) (SG) (PHI) (PHI)
                 (DLTA) (DLTA) (PI) (PI) (SG) (PHI) (PHI) (DLTA)
                 (DLTA) (PI) (PI) (SG) (SG) (DLTA) (DLTA) (PI)
                 (PI) (SG) (PI) (PI) (SG) (PI) (PI) (SG) (?A) (?A)
                 (PHI) (PHI) (DLTA) (DLTA) (PI) (PI) (SG) (DLTA)
                 (DLTA) (PI) (PI) (SG) (PHI) (PHI) (DLTA) (DLTA)
                 (PI) (PI) (SG) (PHI) (PHI) (DLTA) (DLTA) (PI)
                 (PI) (SG) (SG) (PI) (PI) (SG) (DLTA) (DLTA) (PI)
                 (PI) (SG) (SG)
    12 initial guesses have been made.
 Convergence on wavefunction:    0.001000000000000
 Davidson Disk Diagonalization:  ConvIn= 1.00D-03 SkipCon=T Conv= 1.00D-03.
 Max sub-space:  1476 roots to seek:    12 dimension of matrix:          738
 Iteration     1 Dimension    12 NMult     0 NNew     12
 CISAX will form    12 AO SS matrices at one time.
 NMat=    12 NSing=    12 JSym2X= 2.
 Excitation Energies [eV] at current iteration:
 Root      1 :     0.479705809328516
 Root      2 :     0.479705809328547
 Root      3 :     1.267587864196095
 Root      4 :     1.267587864196149
 Root      5 :     5.507838461093330
 Root      6 :     6.495985192225378
 Root      7 :     6.563483329207056
 Root      8 :     6.563483329207099
 Root      9 :    11.610231113094864
 Root     10 :    11.610231113094883
 Root     11 :    13.406415483335739
 Root     12 :    13.406415483335794
 Iteration     2 Dimension    24 NMult    12 NNew     12
 CISAX will form    12 AO SS matrices at one time.
 NMat=    12 NSing=    12 JSym2X= 2.
 Root      1 not converged, maximum delta is    0.465084238762312
 Excitation Energies [eV] at current iteration:
 Root      1 :     0.006087596913117   Change is   -0.473618212415399
 Root      2 :     0.006087596913124   Change is   -0.473618212415423
 Root      3 :     0.832128473856202   Change is   -0.435459390339893
 Root      4 :     0.832128473856256   Change is   -0.435459390339893
 Root      5 :     5.208708539277978   Change is   -0.299129921815352
 Root      6 :     6.055682005927834   Change is   -0.440303186297543
 Root      7 :     6.488658571946745   Change is   -0.074824757260311
 Root      8 :     6.488658571946775   Change is   -0.074824757260323
 Root      9 :     8.479915370928357   Change is   -3.130315742166526
 Root     10 :     8.479915370928399   Change is   -3.130315742166466
 Root     11 :    11.795964307751444   Change is   -1.610451175584295
 Root     12 :    11.795964307751481   Change is   -1.610451175584313
 Iteration     3 Dimension    27 NMult    24 NNew      3
 CISAX will form     3 AO SS matrices at one time.
 NMat=     3 NSing=     3 JSym2X= 2.
 Root      1 not converged, maximum delta is    0.451700617069836
 Excitation Energies [eV] at current iteration:
 Root      1 :     0.000269106700201   Change is   -0.005818490212917
 Root      2 :     0.000269108319900   Change is   -0.005818488593224
 Root      3 :     0.819482733055282   Change is   -0.012645740800920
 Iteration     4 Dimension    30 NMult    27 NNew      3
 CISAX will form     3 AO SS matrices at one time.
 NMat=     3 NSing=     3 JSym2X= 2.
 Root      1 has converged.
 Excitation Energies [eV] at current iteration:
 Root      1 :     0.000207752250222   Change is   -0.000061354449979
 Root      2 :     0.000207752777006   Change is   -0.000061355542893
 Root      3 :     0.819328057846487   Change is   -0.000154675208795
 Convergence achieved on expansion vectors.
 ***********************************************************************
 Stability analysis using <AA,BB:AA,BB> singles matrix:
 ***********************************************************************
 1PDM for each excited state written to RWF  633
 Ground to excited state transition densities written to RWF  633

 Eigenvectors of the stability matrix:
 
 Excited state symmetry could not be determined.
 Eigenvector   1:  2.272-?Sym  Eigenvalue= 0.0000076  <S**2>=1.041
      3B ->  5B        0.36355
      3B ->  6B        0.58098
      3B ->  9B       -0.28236
      3B -> 10B       -0.58973
      3B -> 22B       -0.28603
 The wavefunction is stable under the perturbations considered.
 Leave Link  914 at Sun May 22 10:56:02 2022, MaxMem=   104857600 cpu:               3.7 elap:               3.7
 (Enter /apps/software/g16/l508.exe)
 The wavefunction is already stable.
 Leave Link  508 at Sun May 22 10:56:02 2022, MaxMem=   104857600 cpu:               0.0 elap:               0.0
 (Enter /apps/software/g16/l601.exe)
 Copying SCF densities to generalized density rwf, IOpCl= 1 IROHF=0.

 **********************************************************************

            Population analysis using the SCF density.

 **********************************************************************

 Orbital symmetries:
 Alpha Orbitals:
       Occupied  (SG) (SG) (SG)
       Virtual   (PI) (PI) (SG) (SG) (SG) (PI) (PI) (SG) (PI) (PI)
                 (DLTA) (DLTA) (SG) (PI) (PI) (SG) (PI) (PI) (SG)
                 (SG) (SG) (PHI) (PHI) (DLTA) (DLTA) (PI) (PI)
                 (SG) (DLTA) (DLTA) (PI) (PI) (SG) (DLTA) (DLTA)
                 (PI) (PI) (SG) (PI) (PI) (SG) (PI) (PI) (SG) (?A)
                 (?A) (PHI) (PHI) (DLTA) (DLTA) (PI) (PI) (SG)
                 (DLTA) (DLTA) (SG) (PHI) (PHI) (PI) (PI) (DLTA)
                 (DLTA) (SG) (PI) (PI) (SG) (PHI) (PHI) (DLTA)
                 (DLTA) (PI) (PI) (SG) (SG) (DLTA) (DLTA) (PI)
                 (PI) (SG) (PI) (PI) (SG) (PI) (PI) (SG) (?A) (?A)
                 (PHI) (PHI) (DLTA) (DLTA) (DLTA) (DLTA) (PI) (PI)
                 (SG) (PI) (PI) (SG) (PHI) (PHI) (DLTA) (DLTA)
                 (PI) (PI) (SG) (PHI) (PHI) (DLTA) (DLTA) (PI)
                 (PI) (SG) (SG) (PI) (PI) (SG) (DLTA) (DLTA) (PI)
                 (PI) (SG) (SG)
 Beta  Orbitals:
       Occupied  (SG) (SG) (SG)
       Virtual   (SG) (PI) (PI) (SG) (SG) (PI) (PI) (SG) (PI) (PI)
                 (DLTA) (DLTA) (SG) (PI) (PI) (SG) (SG) (PI) (PI)
                 (SG) (SG) (PHI) (PHI) (DLTA) (DLTA) (PI) (PI)
                 (SG) (PI) (PI) (DLTA) (DLTA) (SG) (DLTA) (DLTA)
                 (PI) (PI) (SG) (PI) (PI) (SG) (SG) (PI) (PI) (?A)
                 (?A) (PHI) (PHI) (DLTA) (DLTA) (PI) (PI) (SG)
                 (SG) (PI) (PI) (DLTA) (DLTA) (SG) (PHI) (PHI)
                 (DLTA) (DLTA) (PI) (PI) (SG) (PHI) (PHI) (DLTA)
                 (DLTA) (PI) (PI) (SG) (SG) (DLTA) (DLTA) (PI)
                 (PI) (SG) (PI) (PI) (SG) (PI) (PI) (SG) (?A) (?A)
                 (PHI) (PHI) (DLTA) (DLTA) (PI) (PI) (SG) (DLTA)
                 (DLTA) (PI) (PI) (SG) (PHI) (PHI) (DLTA) (DLTA)
                 (PI) (PI) (SG) (PHI) (PHI) (DLTA) (DLTA) (PI)
                 (PI) (SG) (SG) (PI) (PI) (SG) (DLTA) (DLTA) (PI)
                 (PI) (SG) (SG)
 The electronic state is 1-SG.
 Alpha  occ. eigenvalues --   -7.68635  -0.49731  -0.44628
 Alpha virt. eigenvalues --    0.02739   0.02739   0.04334   0.05080   0.07343
 Alpha virt. eigenvalues --    0.08427   0.08427   0.11845   0.14320   0.14320
 Alpha virt. eigenvalues --    0.14573   0.14573   0.15630   0.19070   0.19070
 Alpha virt. eigenvalues --    0.24527   0.32032   0.32032   0.34734   0.35950
 Alpha virt. eigenvalues --    0.37919   0.46179   0.46179   0.47103   0.47103
 Alpha virt. eigenvalues --    0.47515   0.47515   0.48910   0.50158   0.50158
 Alpha virt. eigenvalues --    0.52368   0.52368   0.55870   0.61597   0.61597
 Alpha virt. eigenvalues --    0.62988   0.62988   0.65877   0.75331   0.75331
 Alpha virt. eigenvalues --    0.82231   1.06027   1.06027   1.11756   1.36972
 Alpha virt. eigenvalues --    1.36972   1.38444   1.38444   1.39488   1.39488
 Alpha virt. eigenvalues --    1.40157   1.40157   1.40449   1.41594   1.41594
 Alpha virt. eigenvalues --    1.42484   1.43976   1.43976   1.45530   1.45530
 Alpha virt. eigenvalues --    1.46366   1.46366   1.47325   1.47961   1.47961
 Alpha virt. eigenvalues --    1.50623   1.56111   1.56111   1.56158   1.56158
 Alpha virt. eigenvalues --    1.56517   1.56517   1.56858   1.60985   2.45046
 Alpha virt. eigenvalues --    2.45046   2.45532   2.45532   2.46815   2.55353
 Alpha virt. eigenvalues --    2.55353   2.60650   3.74434   3.74434   3.79602
 Alpha virt. eigenvalues --    3.92034   3.92034   3.94567   3.94567   3.96050
 Alpha virt. eigenvalues --    3.96050   3.96495   3.96495   3.97504   3.97504
 Alpha virt. eigenvalues --    3.97964   4.00253   4.00253   4.02629   4.08874
 Alpha virt. eigenvalues --    4.08874   4.12140   4.12140   4.14303   4.14303
 Alpha virt. eigenvalues --    4.16470   6.55363   6.55363   6.55375   6.55375
 Alpha virt. eigenvalues --    6.55428   6.55428   6.55550   7.39855   7.93261
 Alpha virt. eigenvalues --    7.93261   7.96776   8.38933   8.38933   8.39216
 Alpha virt. eigenvalues --    8.39216   8.40482  13.05347
  Beta  occ. eigenvalues --   -7.70150  -0.54533  -0.31880
  Beta virt. eigenvalues --    0.01750   0.02364   0.02364   0.05149   0.07066
  Beta virt. eigenvalues --    0.07729   0.07729   0.11098   0.14278   0.14278
  Beta virt. eigenvalues --    0.14565   0.14565   0.15955   0.20609   0.20609
  Beta virt. eigenvalues --    0.24556   0.29125   0.31214   0.31214   0.34471
  Beta virt. eigenvalues --    0.45199   0.46186   0.46186   0.46700   0.46700
  Beta virt. eigenvalues --    0.46939   0.46939   0.49146   0.49377   0.49377
  Beta virt. eigenvalues --    0.50048   0.50048   0.53408   0.62935   0.62935
  Beta virt. eigenvalues --    0.64223   0.64223   0.67323   0.81944   0.81944
  Beta virt. eigenvalues --    0.87557   1.04334   1.05089   1.05089   1.37000
  Beta virt. eigenvalues --    1.37000   1.37928   1.37928   1.38591   1.38591
  Beta virt. eigenvalues --    1.39009   1.39009   1.39062   1.39303   1.40643
  Beta virt. eigenvalues --    1.40643   1.41105   1.41105   1.42426   1.43912
  Beta virt. eigenvalues --    1.43912   1.44739   1.44739   1.45385   1.45385
  Beta virt. eigenvalues --    1.47939   1.57369   1.57369   1.57413   1.57413
  Beta virt. eigenvalues --    1.57709   1.57709   1.58500   1.71047   2.48994
  Beta virt. eigenvalues --    2.48994   2.49476   2.49476   2.50885   2.62829
  Beta virt. eigenvalues --    2.62829   2.67762   3.73716   3.73716   3.74643
  Beta virt. eigenvalues --    3.91964   3.91964   3.93477   3.93477   3.94558
  Beta virt. eigenvalues --    3.94558   3.95223   3.95223   3.95566   3.95601
  Beta virt. eigenvalues --    3.95601   3.96580   3.96580   3.97839   4.08606
  Beta virt. eigenvalues --    4.08606   4.09995   4.09995   4.10969   4.10969
  Beta virt. eigenvalues --    4.12696   6.58248   6.58248   6.58259   6.58259
  Beta virt. eigenvalues --    6.58312   6.58312   6.58433   7.48050   7.99058
  Beta virt. eigenvalues --    7.99058   8.02533   8.43157   8.43157   8.43438
  Beta virt. eigenvalues --    8.43438   8.44697  13.04169
          Condensed to atoms (all electrons):
               1          2
     1  B    4.999826   0.000021
     2  H    0.000021   1.000133
          Atomic-Atomic Spin Densities.
               1          2
     1  B   -1.000033  -0.000045
     2  H   -0.000045   1.000123
 Mulliken charges and spin densities:
               1          2
     1  B    0.000154  -1.000078
     2  H   -0.000154   1.000078
 Sum of Mulliken charges =  -0.00000   0.00000
 Mulliken charges and spin densities with hydrogens summed into heavy atoms:
               1          2
     1  B   -0.000000   0.000000
 Electronic spatial extent (au):  <R**2>=             99.3126
 Charge=             -0.0000 electrons
 Dipole moment (field-independent basis, Debye):
    X=              0.0000    Y=             -0.0000    Z=              0.0105  Tot=              0.0105
 Quadrupole moment (field-independent basis, Debye-Ang):
   XX=             -7.3054   YY=             -7.3054   ZZ=            -10.7358
   XY=              0.0000   XZ=              0.0000   YZ=              0.0000
 Traceless Quadrupole moment (field-independent basis, Debye-Ang):
   XX=              1.1435   YY=              1.1435   ZZ=             -2.2870
   XY=              0.0000   XZ=              0.0000   YZ=              0.0000
 Octapole moment (field-independent basis, Debye-Ang**2):
  XXX=              0.0000  YYY=             -0.0000  ZZZ=             -6.1932  XYY=              0.0000
  XXY=             -0.0000  XXZ=              0.6809  XZZ=              0.0000  YZZ=             -0.0000
  YYZ=              0.6809  XYZ=              0.0000
 Hexadecapole moment (field-independent basis, Debye-Ang**3):
 XXXX=            -10.7281 YYYY=            -10.7281 ZZZZ=           -218.0811 XXXY=              0.0000
 XXXZ=              0.0000 YYYX=              0.0000 YYYZ=             -0.0000 ZZZX=              0.0000
 ZZZY=              0.0000 XXYY=             -3.5760 XXZZ=            -35.1432 YYZZ=            -35.1432
 XXYZ=             -0.0000 YYXZ=              0.0000 ZZXY=             -0.0000
 N-N= 5.088242412692D-01 E-N=-5.892026219997D+01  KE= 2.503231335352D+01
 Symmetry A1   KE= 2.503231335352D+01
 Symmetry A2   KE= 7.713399547964D-30
 Symmetry B1   KE= 1.366591141571D-29
 Symmetry B2   KE= 1.633562695820D-29
 Symmetry A1   SP= 7.339711192633D-15
 Symmetry A2   SP=-3.752796251208D-31
 Symmetry B1   SP=-6.107660866117D-31
 Symmetry B2   SP=-2.018072105729D-30
                          Isotropic Fermi Contact Couplings
        Atom                 a.u.       MegaHertz       Gauss      10(-4) cm-1
     1  B(11)             -0.00228      -1.63612      -0.58381      -0.54575
     2  H(1)               0.29854     667.22081     238.08098     222.56091
 --------------------------------------------------------
       Center         ----  Spin Dipole Couplings  ----
                      3XX-RR        3YY-RR        3ZZ-RR
 --------------------------------------------------------
     1   Atom        0.330631      0.330631     -0.661262
     2   Atom        0.001305      0.001305     -0.002609
 --------------------------------------------------------
                        XY            XZ            YZ
 --------------------------------------------------------
     1   Atom        0.000000      0.000000      0.000000
     2   Atom        0.000000      0.000000      0.000000
 --------------------------------------------------------


 ---------------------------------------------------------------------------------
              Anisotropic Spin Dipole Couplings in Principal Axis System
 ---------------------------------------------------------------------------------

       Atom             a.u.   MegaHertz   Gauss  10(-4) cm-1        Axes

              Baa    -0.6613  -113.218   -40.399   -37.765  0.0000  0.0000  1.0000
     1 B(11)  Bbb     0.3306    56.609    20.199    18.883 -0.0000  1.0000  0.0000
              Bcc     0.3306    56.609    20.199    18.883  1.0000  0.0000  0.0000
 
              Baa    -0.0026    -1.392    -0.497    -0.464  0.0000  0.0000  1.0000
     2 H(1)   Bbb     0.0013     0.696     0.248     0.232 -0.0000  1.0000  0.0000
              Bcc     0.0013     0.696     0.248     0.232  1.0000  0.0000  0.0000
 

 ---------------------------------------------------------------------------------

 No NMR shielding tensors so no spin-rotation constants.
 Leave Link  601 at Sun May 22 10:56:03 2022, MaxMem=   104857600 cpu:               0.2 elap:               0.2
 (Enter /apps/software/g16/l9999.exe)
 1\1\GINC-CNODE13\Stability\UHF\Aug-CC-pVQZ\B1H1\LCZ\22-May-2022\0\\#p 
 UHF/aug-cc-pVQZ guess=mix stable=opt\\BH UHF at 5.2 Angstrom\\0,1\B,0,
 0.,0.,0.\H,0,5.2,0.,0.\\Version=ES64L-G16RevA.03\State=1-SG\HF=-25.032
 9374\S2=1.011158\S2-1=0.\S2A=0.089569\RMSD=3.909e-09\Dipole=-0.0041345
 ,0.,0.\Quadrupole=-1.7003137,0.8501568,0.8501568,0.,0.,0.\PG=C*V [C*(H
 1B1)]\\@


 MAN IS A SINGULAR CREATURE.  HE HAS A SET OF GIFTS
 WHICH MAKE HIM UNIQUE AMONG THE ANIMALS: SO THAT, 
 UNLIKE THEM, HE IS NOT A FIGURE IN THE LANDSCAPE --
 HE IS A SHAPER OF THE LANDSCAPE.

                       -- JACOB BRONOWSKI
 Job cpu time:       0 days  0 hours  0 minutes  8.6 seconds.
 Elapsed time:       0 days  0 hours  0 minutes  8.5 seconds.
 File lengths (MBytes):  RWF=     29 Int=      0 D2E=      0 Chk=      4 Scr=      1
 Normal termination of Gaussian 16 at Sun May 22 10:56:03 2022.

Sender: Unischeduler System <lcz@mgt01>
Subject: Job 133852: <#!/bin/bash
#BSUB -J intel
#BSUB -o BH-5.2-UHF-G.out
#BSUB -n 8
#BSUB -q cqueue
#BSUB -R span[hosts=1]
export g16root=/apps/software
source /apps/software/g16/bsd/g16.profile
export GAUSS_SCRDIR=/scratch
/apps/software/g16/g16 < BH-5.2-UHF-G.inp > BH-5.2-UHF-G.out> Done

Job <#!/bin/bash
#BSUB -J intel
#BSUB -o BH-5.2-UHF-G.out
#BSUB -n 8
#BSUB -q cqueue
#BSUB -R span[hosts=1]
export g16root=/apps/software
source /apps/software/g16/bsd/g16.profile
export GAUSS_SCRDIR=/scratch
/apps/software/g16/g16 < BH-5.2-UHF-G.inp > BH-5.2-UHF-G.out> was submitted from host <mgt01> by user <lcz>.
Job was executed on host(s) <8*cnode13>, in queue <cqueue>, as user <lcz>.
</apps/users/lcz> was used as the home directory.
</apps/users/lcz/exe13/UMP2> was used as the working directory.
Started at 2022-05-22 10:55:54
Results reported at 2022-05-22 10:56:03

Your job looked like:

------------------------------------------------------------
# User input
#!/bin/bash
#BSUB -J intel
#BSUB -o BH-5.2-UHF-G.out
#BSUB -n 8
#BSUB -q cqueue
#BSUB -R span[hosts=1]
export g16root=/apps/software
source /apps/software/g16/bsd/g16.profile
export GAUSS_SCRDIR=/scratch
/apps/software/g16/g16 < BH-5.2-UHF-G.inp > BH-5.2-UHF-G.out
------------------------------------------------------------

Successfully completed.

Resource usage summary:

    CPU time   :            4.03 sec.
    Max Memory :               483 MB
    Max Processes  :               5


The output (if any) follows:

