 Entering Gaussian System, Link 0=/apps/software/g16/g16
 Initial command:
 /apps/software/g16/l1.exe "/scratch/Gau-109518.inp" -scrdir="/scratch/"
 Entering Link 1 = /apps/software/g16/l1.exe PID=    109519.
  
 Copyright (c) 1988,1990,1992,1993,1995,1998,2003,2009,2016,
            Gaussian, Inc.  All Rights Reserved.
  
 This is part of the Gaussian(R) 16 program.  It is based on
 the Gaussian(R) 09 system (copyright 2009, Gaussian, Inc.),
 the Gaussian(R) 03 system (copyright 2003, Gaussian, Inc.),
 the Gaussian(R) 98 system (copyright 1998, Gaussian, Inc.),
 the Gaussian(R) 94 system (copyright 1995, Gaussian, Inc.),
 the Gaussian 92(TM) system (copyright 1992, Gaussian, Inc.),
 the Gaussian 90(TM) system (copyright 1990, Gaussian, Inc.),
 the Gaussian 88(TM) system (copyright 1988, Gaussian, Inc.),
 the Gaussian 86(TM) system (copyright 1986, Carnegie Mellon
 University), and the Gaussian 82(TM) system (copyright 1983,
 Carnegie Mellon University). Gaussian is a federally registered
 trademark of Gaussian, Inc.
  
 This software contains proprietary and confidential information,
 including trade secrets, belonging to Gaussian, Inc.
  
 This software is provided under written license and may be
 used, copied, transmitted, or stored only in accord with that
 written license.
  
 The following legend is applicable only to US Government
 contracts under FAR:
  
                    RESTRICTED RIGHTS LEGEND
  
 Use, reproduction and disclosure by the US Government is
 subject to restrictions as set forth in subparagraphs (a)
 and (c) of the Commercial Computer Software - Restricted
 Rights clause in FAR 52.227-19.
  
 Gaussian, Inc.
 340 Quinnipiac St., Bldg. 40, Wallingford CT 06492
  
  
 ---------------------------------------------------------------
 Warning -- This program may not be used in any manner that
 competes with the business of Gaussian, Inc. or will provide
 assistance to any competitor of Gaussian, Inc.  The licensee
 of this program is prohibited from giving any competitor of
 Gaussian, Inc. access to this program.  By using this program,
 the user acknowledges that Gaussian, Inc. is engaged in the
 business of creating and licensing software in the field of
 computational chemistry and represents and warrants to the
 licensee that it is not a competitor of Gaussian, Inc. and that
 it will not use this program in any manner prohibited above.
 ---------------------------------------------------------------
  

 Cite this work as:
 Gaussian 16, Revision A.03,
 M. J. Frisch, G. W. Trucks, H. B. Schlegel, G. E. Scuseria, 
 M. A. Robb, J. R. Cheeseman, G. Scalmani, V. Barone, 
 G. A. Petersson, H. Nakatsuji, X. Li, M. Caricato, A. V. Marenich, 
 J. Bloino, B. G. Janesko, R. Gomperts, B. Mennucci, H. P. Hratchian, 
 J. V. Ortiz, A. F. Izmaylov, J. L. Sonnenberg, D. Williams-Young, 
 F. Ding, F. Lipparini, F. Egidi, J. Goings, B. Peng, A. Petrone, 
 T. Henderson, D. Ranasinghe, V. G. Zakrzewski, J. Gao, N. Rega, 
 G. Zheng, W. Liang, M. Hada, M. Ehara, K. Toyota, R. Fukuda, 
 J. Hasegawa, M. Ishida, T. Nakajima, Y. Honda, O. Kitao, H. Nakai, 
 T. Vreven, K. Throssell, J. A. Montgomery, Jr., J. E. Peralta, 
 F. Ogliaro, M. J. Bearpark, J. J. Heyd, E. N. Brothers, K. N. Kudin, 
 V. N. Staroverov, T. A. Keith, R. Kobayashi, J. Normand, 
 K. Raghavachari, A. P. Rendell, J. C. Burant, S. S. Iyengar, 
 J. Tomasi, M. Cossi, J. M. Millam, M. Klene, C. Adamo, R. Cammi, 
 J. W. Ochterski, R. L. Martin, K. Morokuma, O. Farkas, 
 J. B. Foresman, and D. J. Fox, Gaussian, Inc., Wallingford CT, 2016.
 
 ******************************************
 Gaussian 16:  ES64L-G16RevA.03 25-Dec-2016
                22-May-2022 
 ******************************************
 %chk=BH-5.4-UHF-G.chk
 ---------------------------------------
 #p UHF/aug-cc-pVQZ guess=mix stable=opt
 ---------------------------------------
 1/38=1,172=1/1;
 2/12=2,17=6,18=5,40=1/2;
 3/5=16,6=2,7=10,11=2,25=1,30=1,116=2/1,2,3;
 4/13=-1/1;
 5/5=2,38=5/2;
 6/7=2,8=2,9=2,10=2,28=1/1;
 8/6=1,10=90,11=11/1;
 9/8=-3,42=1,46=1/14;
 5/5=2,8=3,17=40,38=5/8(-2);
 6/7=2,8=2,9=2,10=2,28=1/1;
 99/5=1,9=1/99;
 Leave Link    1 at Sun May 22 10:56:20 2022, MaxMem=           0 cpu:               0.0 elap:               0.0
 (Enter /apps/software/g16/l101.exe)
 ----------------------
 BH UHF at 5.4 Angstrom
 ----------------------
 Symbolic Z-matrix:
 Charge =  0 Multiplicity = 1
 B                     0.        0.        0. 
 H                     5.4       0.        0. 
 
 ITRead=  0  0
 MicOpt= -1 -1
 NAtoms=      2 NQM=        2 NQMF=       0 NMMI=      0 NMMIF=      0
                NMic=       0 NMicF=      0.
                    Isotopes and Nuclear Properties:
 (Nuclear quadrupole moments (NQMom) in fm**2, nuclear magnetic moments (NMagM)
  in nuclear magnetons)

  Atom         1           2
 IAtWgt=          11           1
 AtmWgt=  11.0093053   1.0078250
 NucSpn=           3           1
 AtZEff=  -0.0000000  -0.0000000
 NQMom=    4.0590000   0.0000000
 NMagM=    2.6886370   2.7928460
 AtZNuc=   5.0000000   1.0000000
 Leave Link  101 at Sun May 22 10:56:20 2022, MaxMem=   104857600 cpu:               0.1 elap:               0.1
 (Enter /apps/software/g16/l202.exe)
                          Input orientation:                          
 ---------------------------------------------------------------------
 Center     Atomic      Atomic             Coordinates (Angstroms)
 Number     Number       Type             X           Y           Z
 ---------------------------------------------------------------------
      1          5           0        0.000000    0.000000    0.000000
      2          1           0        5.400000    0.000000    0.000000
 ---------------------------------------------------------------------
 Stoichiometry    BH
 Framework group  C*V[C*(HB)]
 Deg. of freedom     1
 Full point group                 C*V     NOp   4
 Largest Abelian subgroup         C2V     NOp   4
 Largest concise Abelian subgroup C1      NOp   1
                         Standard orientation:                         
 ---------------------------------------------------------------------
 Center     Atomic      Atomic             Coordinates (Angstroms)
 Number     Number       Type             X           Y           Z
 ---------------------------------------------------------------------
      1          5           0        0.000000    0.000000    0.900000
      2          1           0        0.000000    0.000000   -4.500000
 ---------------------------------------------------------------------
 Rotational constants (GHZ):           0.0000000          18.7709128          18.7709128
 Leave Link  202 at Sun May 22 10:56:20 2022, MaxMem=   104857600 cpu:               0.0 elap:               0.0
 (Enter /apps/software/g16/l301.exe)
 Standard basis: Aug-CC-pVQZ (5D, 7F)
 Ernie: Thresh=  0.10000D-02 Tol=  0.10000D-05 Strict=F.
 Ernie:  4 primitive shells out of 54 were deleted.
 There are    68 symmetry adapted cartesian basis functions of A1  symmetry.
 There are    18 symmetry adapted cartesian basis functions of A2  symmetry.
 There are    37 symmetry adapted cartesian basis functions of B1  symmetry.
 There are    37 symmetry adapted cartesian basis functions of B2  symmetry.
 There are    50 symmetry adapted basis functions of A1  symmetry.
 There are    16 symmetry adapted basis functions of A2  symmetry.
 There are    30 symmetry adapted basis functions of B1  symmetry.
 There are    30 symmetry adapted basis functions of B2  symmetry.
   126 basis functions,   180 primitive gaussians,   160 cartesian basis functions
     3 alpha electrons        3 beta electrons
       nuclear repulsion energy         0.4899788990 Hartrees.
 IExCor=    0 DFT=F Ex=HF Corr=None ExCW=0 ScaHFX=  1.000000
 ScaDFX=  1.000000  1.000000  1.000000  1.000000 ScalE2=  1.000000  1.000000
 IRadAn=      5 IRanWt=     -1 IRanGd=            0 ICorTp=0 IEmpDi=  4
 NAtoms=    2 NActive=    2 NUniq=    2 SFac= 1.00D+00 NAtFMM=   60 NAOKFM=F Big=F
 Integral buffers will be    131072 words long.
 Raffenetti 2 integral format.
 Two-electron integral symmetry is turned on.
 Leave Link  301 at Sun May 22 10:56:20 2022, MaxMem=   104857600 cpu:               0.1 elap:               0.1
 (Enter /apps/software/g16/l302.exe)
 NPDir=0 NMtPBC=     1 NCelOv=     1 NCel=       1 NClECP=     1 NCelD=      1
         NCelK=      1 NCelE2=     1 NClLst=     1 CellRange=     0.0.
 One-electron integrals computed using PRISM.
 One-electron integral symmetry used in STVInt
 NBasis=   126 RedAO= T EigKep=  1.24D-02  NBF=    50    16    30    30
 NBsUse=   126 1.00D-06 EigRej= -1.00D+00 NBFU=    50    16    30    30
 Leave Link  302 at Sun May 22 10:56:20 2022, MaxMem=   104857600 cpu:               0.1 elap:               0.1
 (Enter /apps/software/g16/l303.exe)
 DipDrv:  MaxL=1.
 Leave Link  303 at Sun May 22 10:56:20 2022, MaxMem=   104857600 cpu:               0.0 elap:               0.0
 (Enter /apps/software/g16/l401.exe)
 ExpMin= 1.88D-02 ExpMax= 2.39D+04 ExpMxC= 2.30D+02 IAcc=3 IRadAn=         5 AccDes= 0.00D+00
 Harris functional with IExCor=  205 and IRadAn=       5 diagonalized for initial guess.
 HarFok:  IExCor=  205 AccDes= 0.00D+00 IRadAn=         5 IDoV= 1 UseB2=F ITyADJ=14
 ICtDFT=  3500011 ScaDFX=  1.000000  1.000000  1.000000  1.000000
 FoFCou: FMM=F IPFlag=           0 FMFlag=      100000 FMFlg1=           0
         NFxFlg=           0 DoJE=T BraDBF=F KetDBF=T FulRan=T
         wScrn=  0.000000 ICntrl=       500 IOpCl=  0 I1Cent=   200000004 NGrid=           0
         NMat0=    1 NMatS0=      1 NMatT0=    0 NMatD0=    1 NMtDS0=    0 NMtDT0=    0
 Petite list used in FoFCou.
 Harris En= -24.9881475995398    
 JPrj=0 DoOrth=F DoCkMO=T.
 Mixing orbitals, IMix= 1 IMixAn=  0 NRI=1 NE=    3 Coef=  7.07106781D-01  7.07106781D-01
 Mixing orbitals, IMix= 1 IMixAn=  0 NRI=1 NE=    3 Coef= -7.07106781D-01  7.07106781D-01
 Initial guess orbital symmetries:
 Alpha Orbitals:
       Occupied  (SG) (SG) (SG)
       Virtual   (SG) (PI) (PI) (SG) (SG) (PI) (PI) (SG) (PI) (PI)
                 (SG) (DLTA) (DLTA) (PI) (PI) (SG) (PI) (PI) (SG)
                 (SG) (SG) (PI) (PI) (DLTA) (DLTA) (SG) (PI) (PI)
                 (DLTA) (DLTA) (PHI) (PHI) (SG) (DLTA) (DLTA) (PI)
                 (PI) (SG) (PI) (PI) (SG) (PI) (PI) (SG) (SG) (DLTA)
                 (DLTA) (PI) (PI) (SG) (DLTA) (?A) (?B) (?B) (DLTA)
                 (?A) (?B) (?B) (SG) (DLTA) (DLTA) (PHI) (PHI)
                 (PI) (PI) (SG) (SG) (PHI) (PHI) (DLTA) (DLTA)
                 (PI) (PI) (SG) (DLTA) (DLTA) (PI) (PI) (SG) (PI)
                 (PI) (SG) (PI) (PI) (SG) (DLTA) (DLTA) (PI) (PI)
                 (SG) (DLTA) (?A) (?B) (?B) (?A) (DLTA) (?B) (?B)
                 (SG) (DLTA) (PHI) (PHI) (DLTA) (PI) (PI) (SG)
                 (PHI) (PHI) (DLTA) (DLTA) (PI) (PI) (SG) (SG)
                 (PI) (PI) (SG) (DLTA) (DLTA) (PI) (PI) (SG) (SG)
 Beta  Orbitals:
       Occupied  (SG) (SG) (SG)
       Virtual   (SG) (PI) (PI) (SG) (SG) (PI) (PI) (SG) (PI) (PI)
                 (SG) (DLTA) (DLTA) (PI) (PI) (SG) (PI) (PI) (SG)
                 (SG) (SG) (PI) (PI) (DLTA) (DLTA) (SG) (PI) (PI)
                 (DLTA) (DLTA) (PHI) (PHI) (SG) (DLTA) (DLTA) (PI)
                 (PI) (SG) (PI) (PI) (SG) (PI) (PI) (SG) (SG) (DLTA)
                 (DLTA) (PI) (PI) (SG) (DLTA) (?A) (?B) (?B) (DLTA)
                 (?A) (?B) (?B) (SG) (DLTA) (DLTA) (PHI) (PHI)
                 (PI) (PI) (SG) (SG) (PHI) (PHI) (DLTA) (DLTA)
                 (PI) (PI) (SG) (DLTA) (DLTA) (PI) (PI) (SG) (PI)
                 (PI) (SG) (PI) (PI) (SG) (DLTA) (DLTA) (PI) (PI)
                 (SG) (DLTA) (?A) (?B) (?B) (?A) (DLTA) (?B) (?B)
                 (SG) (DLTA) (PHI) (PHI) (DLTA) (PI) (PI) (SG)
                 (PHI) (PHI) (DLTA) (DLTA) (PI) (PI) (SG) (SG)
                 (PI) (PI) (SG) (DLTA) (DLTA) (PI) (PI) (SG) (SG)
 The electronic state of the initial guess is 1-SG.
 Initial guess <Sx>= 0.0000 <Sy>= 0.0000 <Sz>= 0.0000 <S**2>= 1.0000 S= 0.6180
 Leave Link  401 at Sun May 22 10:56:21 2022, MaxMem=   104857600 cpu:               0.2 elap:               0.2
 (Enter /apps/software/g16/l502.exe)
 Keep R1 and R2 ints in memory in symmetry-blocked form, NReq=40143665.
 FoFCou: FMM=F IPFlag=           0 FMFlag=           0 FMFlg1=           0
         NFxFlg=           0 DoJE=F BraDBF=F KetDBF=F FulRan=T
         wScrn=  0.000000 ICntrl=       600 IOpCl=  0 I1Cent=           0 NGrid=           0
         NMat0=    1 NMatS0=   8001 NMatT0=    0 NMatD0=    1 NMtDS0=    0 NMtDT0=    0
 Petite list used in FoFCou.
 UHF open shell SCF:
 Using DIIS extrapolation, IDIIS=  1040.
 NGot=   104857600 LenX=    88563632 LenY=    88537591
 Requested convergence on RMS density matrix=1.00D-08 within 128 cycles.
 Requested convergence on MAX density matrix=1.00D-06.
 Requested convergence on             energy=1.00D-06.
 No special actions if energy rises.
 An orbital has undefined symmetry, so N**3 symmetry is turned off.

 Cycle   1  Pass 1  IDiag  1:
 E= -24.8219813699874    
 DIIS: error= 3.12D-02 at cycle   1 NSaved=   1.
 NSaved= 1 IEnMin= 1 EnMin= -24.8219813699874     IErMin= 1 ErrMin= 3.12D-02
 ErrMax= 3.12D-02  0.00D+00 EMaxC= 1.00D-01 BMatC= 1.47D-01 BMatP= 1.47D-01
 IDIUse=3 WtCom= 6.88D-01 WtEn= 3.12D-01
 Coeff-Com:  0.100D+01
 Coeff-En:   0.100D+01
 Coeff:      0.100D+01
 Gap=     0.099 Goal=   None    Shift=    0.000
 Gap=     0.104 Goal=   None    Shift=    0.000
 GapD=    0.099 DampG=0.500 DampE=0.500 DampFc=0.2500 IDamp=-1.
 Damping current iteration by 2.50D-01
 RMSDP=1.92D-03 MaxDP=9.04D-02              OVMax= 4.35D-01

 Cycle   2  Pass 1  IDiag  1:
 E= -24.8333782626876     Delta-E=       -0.011396892700 Rises=F Damp=T
 DIIS: error= 2.66D-02 at cycle   2 NSaved=   2.
 NSaved= 2 IEnMin= 2 EnMin= -24.8333782626876     IErMin= 2 ErrMin= 2.66D-02
 ErrMax= 2.66D-02  0.00D+00 EMaxC= 1.00D-01 BMatC= 8.61D-02 BMatP= 1.47D-01
 IDIUse=3 WtCom= 7.34D-01 WtEn= 2.66D-01
 Coeff-Com: -0.185D+01 0.285D+01
 Coeff-En:   0.000D+00 0.100D+01
 Coeff:     -0.136D+01 0.236D+01
 Gap=     0.070 Goal=   None    Shift=    0.000
 Gap=     0.056 Goal=   None    Shift=    0.000
 RMSDP=1.33D-03 MaxDP=6.11D-02 DE=-1.14D-02 OVMax= 4.56D-01

 Cycle   3  Pass 1  IDiag  1:
 E= -24.8658937320495     Delta-E=       -0.032515469362 Rises=F Damp=F
 DIIS: error= 3.55D-02 at cycle   3 NSaved=   3.
 NSaved= 3 IEnMin= 3 EnMin= -24.8658937320495     IErMin= 2 ErrMin= 2.66D-02
 ErrMax= 3.55D-02  0.00D+00 EMaxC= 1.00D-01 BMatC= 2.65D-02 BMatP= 8.61D-02
 IDIUse=3 WtCom= 6.45D-01 WtEn= 3.55D-01
 Coeff-Com: -0.110D+01 0.148D+01 0.623D+00
 Coeff-En:   0.000D+00 0.000D+00 0.100D+01
 Coeff:     -0.711D+00 0.954D+00 0.757D+00
 Gap=     0.158 Goal=   None    Shift=    0.000
 Gap=     0.110 Goal=   None    Shift=    0.000
 RMSDP=1.24D-03 MaxDP=5.80D-02 DE=-3.25D-02 OVMax= 3.60D-01

 Cycle   4  Pass 1  IDiag  1:
 E= -24.9473126053344     Delta-E=       -0.081418873285 Rises=F Damp=F
 DIIS: error= 3.36D-02 at cycle   4 NSaved=   4.
 NSaved= 4 IEnMin= 4 EnMin= -24.9473126053344     IErMin= 2 ErrMin= 2.66D-02
 ErrMax= 3.36D-02  0.00D+00 EMaxC= 1.00D-01 BMatC= 2.76D-02 BMatP= 2.65D-02
 IDIUse=3 WtCom= 6.64D-01 WtEn= 3.36D-01
 Coeff-Com: -0.171D+01 0.221D+01 0.106D+01-0.556D+00
 Coeff-En:   0.000D+00 0.000D+00 0.000D+00 0.100D+01
 Coeff:     -0.113D+01 0.146D+01 0.703D+00-0.332D-01
 Gap=     0.177 Goal=   None    Shift=    0.000
 Gap=     0.113 Goal=   None    Shift=    0.000
 RMSDP=1.88D-04 MaxDP=9.05D-03 DE=-8.14D-02 OVMax= 3.39D-02

 Cycle   5  Pass 1  IDiag  1:
 E= -24.9467736566870     Delta-E=        0.000538948647 Rises=F Damp=F
 DIIS: error= 2.98D-02 at cycle   5 NSaved=   5.
 NSaved= 5 IEnMin= 4 EnMin= -24.9473126053344     IErMin= 2 ErrMin= 2.66D-02
 ErrMax= 2.98D-02  0.00D+00 EMaxC= 1.00D-01 BMatC= 2.98D-02 BMatP= 2.65D-02
 IDIUse=2 WtCom= 0.00D+00 WtEn= 1.00D+00
 Rare condition: small coef for last iteration:  0.000D+00
 Coeff-En:   0.000D+00 0.000D+00 0.000D+00 0.000D+00 0.100D+01
 Coeff:      0.000D+00 0.000D+00 0.000D+00 0.000D+00 0.100D+01
 Gap=     0.387 Goal=   None    Shift=    0.000
 Gap=     0.196 Goal=   None    Shift=    0.000
 RMSDP=1.24D-03 MaxDP=5.49D-02 DE= 5.39D-04 OVMax= 3.18D-01

 Cycle   6  Pass 1  IDiag  1:
 E= -25.0151268115251     Delta-E=       -0.068353154838 Rises=F Damp=F
 DIIS: error= 1.54D-02 at cycle   6 NSaved=   6.
 NSaved= 6 IEnMin= 6 EnMin= -25.0151268115251     IErMin= 6 ErrMin= 1.54D-02
 ErrMax= 1.54D-02  0.00D+00 EMaxC= 1.00D-01 BMatC= 1.21D-02 BMatP= 2.65D-02
 IDIUse=3 WtCom= 8.46D-01 WtEn= 1.54D-01
 Coeff-Com: -0.296D+00 0.346D+00 0.968D+00 0.268D+01-0.387D+01 0.117D+01
 Coeff-En:   0.000D+00 0.000D+00 0.000D+00 0.000D+00 0.000D+00 0.100D+01
 Coeff:     -0.250D+00 0.293D+00 0.819D+00 0.227D+01-0.327D+01 0.114D+01
 Gap=     0.407 Goal=   None    Shift=    0.000
 Gap=     0.201 Goal=   None    Shift=    0.000
 RMSDP=4.92D-04 MaxDP=3.26D-02 DE=-6.84D-02 OVMax= 6.48D-02

 Cycle   7  Pass 1  IDiag  1:
 E= -25.0247494707874     Delta-E=       -0.009622659262 Rises=F Damp=F
 DIIS: error= 1.13D-02 at cycle   7 NSaved=   7.
 NSaved= 7 IEnMin= 7 EnMin= -25.0247494707874     IErMin= 7 ErrMin= 1.13D-02
 ErrMax= 1.13D-02  0.00D+00 EMaxC= 1.00D-01 BMatC= 5.90D-03 BMatP= 1.21D-02
 IDIUse=3 WtCom= 8.87D-01 WtEn= 1.13D-01
 Coeff-Com: -0.285D+00 0.329D+00 0.103D+01 0.296D+01-0.420D+01 0.133D+01
 Coeff-Com: -0.159D+00
 Coeff-En:   0.000D+00 0.000D+00 0.000D+00 0.000D+00 0.000D+00 0.000D+00
 Coeff-En:   0.100D+01
 Coeff:     -0.253D+00 0.292D+00 0.910D+00 0.262D+01-0.372D+01 0.118D+01
 Coeff:     -0.281D-01
 Gap=     0.386 Goal=   None    Shift=    0.000
 Gap=     0.191 Goal=   None    Shift=    0.000
 RMSDP=5.13D-05 MaxDP=2.80D-03 DE=-9.62D-03 OVMax= 1.42D-02

 Cycle   8  Pass 1  IDiag  1:
 E= -25.0234846431440     Delta-E=        0.001264827643 Rises=F Damp=F
 DIIS: error= 1.25D-02 at cycle   8 NSaved=   8.
 NSaved= 8 IEnMin= 7 EnMin= -25.0247494707874     IErMin= 7 ErrMin= 1.13D-02
 ErrMax= 1.25D-02  0.00D+00 EMaxC= 1.00D-01 BMatC= 6.63D-03 BMatP= 5.90D-03
 IDIUse=2 WtCom= 0.00D+00 WtEn= 1.00D+00
 Rare condition: small coef for last iteration:  0.000D+00
 Coeff-En:   0.000D+00 0.000D+00 0.000D+00 0.000D+00 0.000D+00 0.000D+00
 Coeff-En:   0.000D+00 0.100D+01
 Coeff:      0.000D+00 0.000D+00 0.000D+00 0.000D+00 0.000D+00 0.000D+00
 Coeff:      0.000D+00 0.100D+01
 Gap=     0.548 Goal=   None    Shift=    0.000
 Gap=     0.324 Goal=   None    Shift=    0.000
 RMSDP=4.56D-04 MaxDP=2.61D-02 DE= 1.26D-03 OVMax= 1.00D-01

 Cycle   9  Pass 1  IDiag  1:
 E= -25.0313242150320     Delta-E=       -0.007839571888 Rises=F Damp=F
 DIIS: error= 4.00D-03 at cycle   9 NSaved=   9.
 NSaved= 9 IEnMin= 9 EnMin= -25.0313242150320     IErMin= 9 ErrMin= 4.00D-03
 ErrMax= 4.00D-03  0.00D+00 EMaxC= 1.00D-01 BMatC= 1.22D-03 BMatP= 5.90D-03
 IDIUse=3 WtCom= 9.60D-01 WtEn= 4.00D-02
 Coeff-Com: -0.447D-01 0.548D-01 0.698D-01 0.441D+00-0.181D+00-0.298D+00
 Coeff-Com:  0.418D+01-0.465D+01 0.143D+01
 Coeff-En:   0.000D+00 0.000D+00 0.000D+00 0.000D+00 0.000D+00 0.000D+00
 Coeff-En:   0.000D+00 0.000D+00 0.100D+01
 Coeff:     -0.429D-01 0.526D-01 0.670D-01 0.423D+00-0.174D+00-0.286D+00
 Coeff:      0.401D+01-0.447D+01 0.141D+01
 Gap=     0.491 Goal=   None    Shift=    0.000
 Gap=     0.306 Goal=   None    Shift=    0.000
 RMSDP=2.04D-04 MaxDP=1.11D-02 DE=-7.84D-03 OVMax= 4.11D-02

 Cycle  10  Pass 1  IDiag  1:
 E= -25.0324754945147     Delta-E=       -0.001151279483 Rises=F Damp=F
 DIIS: error= 2.40D-03 at cycle  10 NSaved=  10.
 NSaved=10 IEnMin=10 EnMin= -25.0324754945147     IErMin=10 ErrMin= 2.40D-03
 ErrMax= 2.40D-03  0.00D+00 EMaxC= 1.00D-01 BMatC= 4.60D-04 BMatP= 1.22D-03
 IDIUse=3 WtCom= 9.76D-01 WtEn= 2.40D-02
 Coeff-Com:  0.615D-01-0.808D-01-0.101D-01 0.355D+00-0.239D+00-0.249D+00
 Coeff-Com: -0.310D+00 0.154D+00-0.750D-01 0.139D+01
 Coeff-En:   0.000D+00 0.000D+00 0.000D+00 0.000D+00 0.000D+00 0.000D+00
 Coeff-En:   0.000D+00 0.000D+00 0.000D+00 0.100D+01
 Coeff:      0.601D-01-0.789D-01-0.983D-02 0.346D+00-0.233D+00-0.243D+00
 Coeff:     -0.303D+00 0.151D+00-0.732D-01 0.138D+01
 Gap=     0.523 Goal=   None    Shift=    0.000
 Gap=     0.337 Goal=   None    Shift=    0.000
 RMSDP=2.14D-04 MaxDP=1.27D-02 DE=-1.15D-03 OVMax= 2.32D-02

 Cycle  11  Pass 1  IDiag  1:
 E= -25.0329272293757     Delta-E=       -0.000451734861 Rises=F Damp=F
 DIIS: error= 4.94D-04 at cycle  11 NSaved=  11.
 NSaved=11 IEnMin=11 EnMin= -25.0329272293757     IErMin=11 ErrMin= 4.94D-04
 ErrMax= 4.94D-04  0.00D+00 EMaxC= 1.00D-01 BMatC= 8.27D-06 BMatP= 4.60D-04
 IDIUse=3 WtCom= 9.95D-01 WtEn= 4.94D-03
 Coeff-Com: -0.340D-01 0.444D-01 0.160D-01-0.140D+00 0.909D-01 0.846D-01
 Coeff-Com:  0.372D+00-0.232D+00 0.546D-01-0.881D+00 0.163D+01
 Coeff-En:   0.000D+00 0.000D+00 0.000D+00 0.000D+00 0.000D+00 0.000D+00
 Coeff-En:   0.000D+00 0.000D+00 0.000D+00 0.000D+00 0.100D+01
 Coeff:     -0.338D-01 0.442D-01 0.159D-01-0.140D+00 0.905D-01 0.841D-01
 Coeff:      0.370D+00-0.231D+00 0.543D-01-0.877D+00 0.162D+01
 Gap=     0.474 Goal=   None    Shift=    0.000
 Gap=     0.333 Goal=   None    Shift=    0.000
 RMSDP=3.42D-05 MaxDP=3.22D-03 DE=-4.52D-04 OVMax= 3.43D-03

 Cycle  12  Pass 1  IDiag  1:
 E= -25.0329327983729     Delta-E=       -0.000005568997 Rises=F Damp=F
 DIIS: error= 1.77D-04 at cycle  12 NSaved=  12.
 NSaved=12 IEnMin=12 EnMin= -25.0329327983729     IErMin=12 ErrMin= 1.77D-04
 ErrMax= 1.77D-04  0.00D+00 EMaxC= 1.00D-01 BMatC= 2.34D-06 BMatP= 8.27D-06
 IDIUse=3 WtCom= 9.98D-01 WtEn= 1.77D-03
 Coeff-Com: -0.681D-03 0.776D-03 0.277D-02 0.201D-01-0.302D-01 0.274D-01
 Coeff-Com: -0.239D+00 0.175D+00-0.239D-01 0.102D+00-0.248D+00 0.121D+01
 Coeff-En:   0.000D+00 0.000D+00 0.000D+00 0.000D+00 0.000D+00 0.000D+00
 Coeff-En:   0.000D+00 0.000D+00 0.000D+00 0.000D+00 0.000D+00 0.100D+01
 Coeff:     -0.680D-03 0.775D-03 0.277D-02 0.201D-01-0.301D-01 0.273D-01
 Coeff:     -0.239D+00 0.175D+00-0.238D-01 0.102D+00-0.247D+00 0.121D+01
 Gap=     0.474 Goal=   None    Shift=    0.000
 Gap=     0.336 Goal=   None    Shift=    0.000
 RMSDP=1.61D-05 MaxDP=8.23D-04 DE=-5.57D-06 OVMax= 2.55D-03

 Cycle  13  Pass 1  IDiag  1:
 E= -25.0329355187816     Delta-E=       -0.000002720409 Rises=F Damp=F
 DIIS: error= 1.42D-05 at cycle  13 NSaved=  13.
 NSaved=13 IEnMin=13 EnMin= -25.0329355187816     IErMin=13 ErrMin= 1.42D-05
 ErrMax= 1.42D-05  0.00D+00 EMaxC= 1.00D-01 BMatC= 1.72D-08 BMatP= 2.34D-06
 IDIUse=1 WtCom= 1.00D+00 WtEn= 0.00D+00
 Coeff-Com:  0.913D-03-0.111D-02-0.137D-02-0.524D-02 0.827D-02-0.865D-02
 Coeff-Com:  0.231D-02 0.758D-02 0.995D-02 0.267D-02 0.179D-01-0.409D+00
 Coeff-Com:  0.138D+01
 Coeff:      0.913D-03-0.111D-02-0.137D-02-0.524D-02 0.827D-02-0.865D-02
 Coeff:      0.231D-02 0.758D-02 0.995D-02 0.267D-02 0.179D-01-0.409D+00
 Coeff:      0.138D+01
 Gap=     0.474 Goal=   None    Shift=    0.000
 DSYEVD-2 returned Info=         253 IAlg= 4 N=   126 NDim=   126 NE2=      702678 trying  DSYEV.
 Gap=     0.336 Goal=   None    Shift=    0.000
 RMSDP=1.49D-06 MaxDP=7.61D-05 DE=-2.72D-06 OVMax= 1.14D-04

 Cycle  14  Pass 1  IDiag  1:
 E= -25.0329355318342     Delta-E=       -0.000000013053 Rises=F Damp=F
 DIIS: error= 6.77D-06 at cycle  14 NSaved=  14.
 NSaved=14 IEnMin=14 EnMin= -25.0329355318342     IErMin=14 ErrMin= 6.77D-06
 ErrMax= 6.77D-06  0.00D+00 EMaxC= 1.00D-01 BMatC= 4.35D-09 BMatP= 1.72D-08
 IDIUse=1 WtCom= 1.00D+00 WtEn= 0.00D+00
 Coeff-Com: -0.908D-04 0.954D-04 0.171D-03 0.118D-02-0.164D-02 0.124D-02
 Coeff-Com:  0.138D-01-0.132D-01-0.519D-02 0.662D-03-0.453D-02 0.115D+00
 Coeff-Com: -0.466D+00 0.136D+01
 Coeff:     -0.908D-04 0.954D-04 0.171D-03 0.118D-02-0.164D-02 0.124D-02
 Coeff:      0.138D-01-0.132D-01-0.519D-02 0.662D-03-0.453D-02 0.115D+00
 Coeff:     -0.466D+00 0.136D+01
 Gap=     0.474 Goal=   None    Shift=    0.000
 Gap=     0.336 Goal=   None    Shift=    0.000
 RMSDP=6.11D-07 MaxDP=3.27D-05 DE=-1.31D-08 OVMax= 7.64D-05

 Cycle  15  Pass 1  IDiag  1:
 E= -25.0329355361081     Delta-E=       -0.000000004274 Rises=F Damp=F
 DIIS: error= 1.30D-06 at cycle  15 NSaved=  15.
 NSaved=15 IEnMin=15 EnMin= -25.0329355361081     IErMin=15 ErrMin= 1.30D-06
 ErrMax= 1.30D-06  0.00D+00 EMaxC= 1.00D-01 BMatC= 9.19D-11 BMatP= 4.35D-09
 IDIUse=1 WtCom= 1.00D+00 WtEn= 0.00D+00
 Coeff-Com: -0.292D-04 0.475D-04-0.247D-04-0.356D-03 0.362D-03 0.115D-04
 Coeff-Com: -0.986D-02 0.859D-02 0.190D-02 0.291D-03 0.649D-03-0.302D-01
 Coeff-Com:  0.122D+00-0.674D+00 0.158D+01
 Coeff:     -0.292D-04 0.475D-04-0.247D-04-0.356D-03 0.362D-03 0.115D-04
 Coeff:     -0.986D-02 0.859D-02 0.190D-02 0.291D-03 0.649D-03-0.302D-01
 Coeff:      0.122D+00-0.674D+00 0.158D+01
 Gap=     0.474 Goal=   None    Shift=    0.000
 Gap=     0.336 Goal=   None    Shift=    0.000
 RMSDP=1.41D-07 MaxDP=7.43D-06 DE=-4.27D-09 OVMax= 1.66D-05

 Cycle  16  Pass 1  IDiag  1:
 E= -25.0329355362304     Delta-E=       -0.000000000122 Rises=F Damp=F
 DIIS: error= 3.45D-07 at cycle  16 NSaved=  16.
 NSaved=16 IEnMin=16 EnMin= -25.0329355362304     IErMin=16 ErrMin= 3.45D-07
 ErrMax= 3.45D-07  0.00D+00 EMaxC= 1.00D-01 BMatC= 1.52D-11 BMatP= 9.19D-11
 IDIUse=1 WtCom= 1.00D+00 WtEn= 0.00D+00
 Coeff-Com: -0.416D-05 0.217D-05-0.396D-06 0.840D-04-0.348D-04-0.744D-04
 Coeff-Com:  0.526D-02-0.466D-02-0.642D-03-0.627D-03-0.188D-04 0.127D-01
 Coeff-Com: -0.483D-01 0.295D+00-0.870D+00 0.161D+01
 Coeff:     -0.416D-05 0.217D-05-0.396D-06 0.840D-04-0.348D-04-0.744D-04
 Coeff:      0.526D-02-0.466D-02-0.642D-03-0.627D-03-0.188D-04 0.127D-01
 Coeff:     -0.483D-01 0.295D+00-0.870D+00 0.161D+01
 Gap=     0.474 Goal=   None    Shift=    0.000
 Gap=     0.336 Goal=   None    Shift=    0.000
 RMSDP=4.10D-08 MaxDP=2.04D-06 DE=-1.22D-10 OVMax= 4.53D-06

 Cycle  17  Pass 1  IDiag  1:
 E= -25.0329355362483     Delta-E=       -0.000000000018 Rises=F Damp=F
 DIIS: error= 1.68D-07 at cycle  17 NSaved=  17.
 NSaved=17 IEnMin=17 EnMin= -25.0329355362483     IErMin=17 ErrMin= 1.68D-07
 ErrMax= 1.68D-07  0.00D+00 EMaxC= 1.00D-01 BMatC= 1.47D-12 BMatP= 1.52D-11
 IDIUse=1 WtCom= 1.00D+00 WtEn= 0.00D+00
 Coeff-Com:  0.170D-05-0.749D-06-0.384D-05-0.400D-04 0.190D-04 0.230D-04
 Coeff-Com: -0.230D-02 0.204D-02 0.252D-03 0.320D-03-0.948D-04-0.365D-02
 Coeff-Com:  0.132D-01-0.104D+00 0.356D+00-0.100D+01 0.174D+01
 Coeff:      0.170D-05-0.749D-06-0.384D-05-0.400D-04 0.190D-04 0.230D-04
 Coeff:     -0.230D-02 0.204D-02 0.252D-03 0.320D-03-0.948D-04-0.365D-02
 Coeff:      0.132D-01-0.104D+00 0.356D+00-0.100D+01 0.174D+01
 Gap=     0.474 Goal=   None    Shift=    0.000
 Gap=     0.336 Goal=   None    Shift=    0.000
 RMSDP=1.71D-08 MaxDP=8.52D-07 DE=-1.79D-11 OVMax= 2.19D-06

 Cycle  18  Pass 1  IDiag  1:
 E= -25.0329355362503     Delta-E=       -0.000000000002 Rises=F Damp=F
 DIIS: error= 9.02D-08 at cycle  18 NSaved=  18.
 NSaved=18 IEnMin=18 EnMin= -25.0329355362503     IErMin=18 ErrMin= 9.02D-08
 ErrMax= 9.02D-08  0.00D+00 EMaxC= 1.00D-01 BMatC= 6.81D-13 BMatP= 1.47D-12
 IDIUse=1 WtCom= 1.00D+00 WtEn= 0.00D+00
 Coeff-Com: -0.325D-06-0.300D-06 0.362D-05 0.182D-04-0.177D-04 0.412D-05
 Coeff-Com:  0.867D-03-0.747D-03-0.150D-03-0.278D-04-0.365D-04 0.866D-03
 Coeff-Com: -0.272D-02 0.387D-01-0.145D+00 0.497D+00-0.135D+01 0.196D+01
 Coeff:     -0.325D-06-0.300D-06 0.362D-05 0.182D-04-0.177D-04 0.412D-05
 Coeff:      0.867D-03-0.747D-03-0.150D-03-0.278D-04-0.365D-04 0.866D-03
 Coeff:     -0.272D-02 0.387D-01-0.145D+00 0.497D+00-0.135D+01 0.196D+01
 Gap=     0.474 Goal=   None    Shift=    0.000
 Gap=     0.336 Goal=   None    Shift=    0.000
 RMSDP=1.02D-08 MaxDP=5.93D-07 DE=-2.07D-12 OVMax= 1.16D-06

 Cycle  19  Pass 1  IDiag  1:
 E= -25.0329355362510     Delta-E=       -0.000000000001 Rises=F Damp=F
 DIIS: error= 2.79D-08 at cycle  19 NSaved=  19.
 NSaved=19 IEnMin=19 EnMin= -25.0329355362510     IErMin=19 ErrMin= 2.79D-08
 ErrMax= 2.79D-08  0.00D+00 EMaxC= 1.00D-01 BMatC= 4.72D-14 BMatP= 6.81D-13
 IDIUse=1 WtCom= 1.00D+00 WtEn= 0.00D+00
 Large coefficients: NSaved= 19 BigCof=    0.00 CofMax=   10.00 Det=-4.03D-15
 Inversion failed.  Reducing to 18 matrices.
 Large coefficients: NSaved= 18 BigCof=    0.00 CofMax=   10.00 Det=-4.04D-15
 Inversion failed.  Reducing to 17 matrices.
 Large coefficients: NSaved= 17 BigCof=    0.00 CofMax=   10.00 Det=-6.47D-15
 Inversion failed.  Reducing to 16 matrices.
 Large coefficients: NSaved= 16 BigCof=    0.00 CofMax=   10.00 Det=-6.54D-15
 Inversion failed.  Reducing to 15 matrices.
 Coeff-Com:  0.437D-06-0.157D-05-0.108D-04 0.584D-05 0.743D-05-0.190D-04
 Coeff-Com:  0.307D-04 0.789D-04-0.461D-03-0.165D-03 0.632D-02-0.400D-01
 Coeff-Com:  0.155D+00-0.333D+00 0.121D+01
 Coeff:      0.437D-06-0.157D-05-0.108D-04 0.584D-05 0.743D-05-0.190D-04
 Coeff:      0.307D-04 0.789D-04-0.461D-03-0.165D-03 0.632D-02-0.400D-01
 Coeff:      0.155D+00-0.333D+00 0.121D+01
 Gap=     0.474 Goal=   None    Shift=    0.000
 Gap=     0.336 Goal=   None    Shift=    0.000
 RMSDP=2.28D-09 MaxDP=1.21D-07 DE=-7.21D-13 OVMax= 3.77D-07

 SCF Done:  E(UHF) =  -25.0329355363     A.U. after   19 cycles
            NFock= 19  Conv=0.23D-08     -V/T= 2.0000
 <Sx>= 0.0000 <Sy>= 0.0000 <Sz>= 0.0000 <S**2>= 1.0112 S= 0.6230
 <L.S>=  0.00000000000    
 KE= 2.503232757537D+01 PE=-5.888236723109D+01 EE= 8.327125220470D+00
 Annihilation of the first spin contaminant:
 S**2 before annihilation     1.0112,   after     0.0896
 Leave Link  502 at Sun May 22 10:56:24 2022, MaxMem=   104857600 cpu:               3.7 elap:               3.7
 (Enter /apps/software/g16/l601.exe)
 Copying SCF densities to generalized density rwf, IOpCl= 1 IROHF=0.

 **********************************************************************

            Population analysis using the SCF density.

 **********************************************************************

 Orbital symmetries:
 Alpha Orbitals:
       Occupied  (SG) (SG) (SG)
       Virtual   (PI) (PI) (SG) (SG) (SG) (PI) (PI) (SG) (PI) (PI)
                 (DLTA) (DLTA) (SG) (PI) (PI) (SG) (PI) (PI) (SG)
                 (SG) (SG) (PHI) (PHI) (DLTA) (DLTA) (PI) (PI)
                 (SG) (DLTA) (DLTA) (PI) (PI) (SG) (DLTA) (DLTA)
                 (PI) (PI) (SG) (PI) (PI) (SG) (PI) (PI) (SG) (?A)
                 (?A) (PHI) (PHI) (DLTA) (DLTA) (PI) (PI) (SG)
                 (DLTA) (DLTA) (SG) (PHI) (PHI) (PI) (PI) (DLTA)
                 (DLTA) (SG) (PI) (PI) (SG) (PHI) (PHI) (DLTA)
                 (DLTA) (PI) (PI) (SG) (SG) (DLTA) (DLTA) (PI)
                 (PI) (SG) (PI) (PI) (SG) (PI) (PI) (SG) (?A) (?A)
                 (PHI) (PHI) (DLTA) (DLTA) (DLTA) (DLTA) (PI) (PI)
                 (SG) (PI) (PI) (SG) (PHI) (PHI) (DLTA) (DLTA)
                 (PI) (PI) (SG) (PHI) (PHI) (DLTA) (DLTA) (PI)
                 (PI) (SG) (SG) (PI) (PI) (SG) (DLTA) (DLTA) (PI)
                 (PI) (SG) (SG)
 Beta  Orbitals:
       Occupied  (SG) (SG) (SG)
       Virtual   (SG) (PI) (PI) (SG) (SG) (PI) (PI) (SG) (PI) (PI)
                 (DLTA) (DLTA) (SG) (PI) (PI) (SG) (SG) (PI) (PI)
                 (SG) (SG) (PHI) (PHI) (DLTA) (DLTA) (PI) (PI)
                 (SG) (PI) (PI) (DLTA) (DLTA) (SG) (DLTA) (DLTA)
                 (PI) (PI) (SG) (PI) (PI) (SG) (SG) (PI) (PI) (?A)
                 (?A) (PHI) (PHI) (DLTA) (DLTA) (PI) (PI) (SG)
                 (SG) (PI) (PI) (DLTA) (DLTA) (SG) (PHI) (PHI)
                 (DLTA) (DLTA) (PI) (PI) (SG) (PHI) (PHI) (DLTA)
                 (DLTA) (PI) (PI) (SG) (SG) (DLTA) (DLTA) (PI)
                 (PI) (SG) (PI) (PI) (SG) (PI) (PI) (SG) (?A) (?A)
                 (PHI) (PHI) (DLTA) (DLTA) (PI) (PI) (SG) (DLTA)
                 (DLTA) (PI) (PI) (SG) (PHI) (PHI) (DLTA) (DLTA)
                 (PI) (PI) (SG) (PHI) (PHI) (DLTA) (DLTA) (PI)
                 (PI) (SG) (SG) (PI) (PI) (SG) (DLTA) (DLTA) (PI)
                 (PI) (SG) (SG)
 The electronic state is 1-SG.
 Alpha  occ. eigenvalues --   -7.68634  -0.49759  -0.44627
 Alpha virt. eigenvalues --    0.02741   0.02741   0.04307   0.05072   0.07288
 Alpha virt. eigenvalues --    0.08427   0.08427   0.11905   0.14396   0.14396
 Alpha virt. eigenvalues --    0.14574   0.14574   0.15243   0.18791   0.18791
 Alpha virt. eigenvalues --    0.24164   0.32043   0.32043   0.35022   0.35911
 Alpha virt. eigenvalues --    0.37536   0.46180   0.46180   0.47110   0.47110
 Alpha virt. eigenvalues --    0.47600   0.47600   0.48647   0.50162   0.50162
 Alpha virt. eigenvalues --    0.52327   0.52327   0.55389   0.61557   0.61557
 Alpha virt. eigenvalues --    0.62575   0.62575   0.65016   0.75103   0.75103
 Alpha virt. eigenvalues --    0.81278   1.06030   1.06030   1.11334   1.36973
 Alpha virt. eigenvalues --    1.36973   1.38445   1.38445   1.39489   1.39489
 Alpha virt. eigenvalues --    1.40153   1.40153   1.40409   1.41595   1.41595
 Alpha virt. eigenvalues --    1.42487   1.43977   1.43977   1.45486   1.45486
 Alpha virt. eigenvalues --    1.46369   1.46369   1.47487   1.47944   1.47944
 Alpha virt. eigenvalues --    1.50199   1.56088   1.56088   1.56121   1.56121
 Alpha virt. eigenvalues --    1.56339   1.56339   1.56658   1.59946   2.45015
 Alpha virt. eigenvalues --    2.45015   2.45360   2.45360   2.46353   2.55185
 Alpha virt. eigenvalues --    2.55185   2.59796   3.74436   3.74436   3.79296
 Alpha virt. eigenvalues --    3.92035   3.92035   3.94568   3.94568   3.96050
 Alpha virt. eigenvalues --    3.96050   3.96496   3.96496   3.97504   3.97504
 Alpha virt. eigenvalues --    3.97916   4.00216   4.00216   4.02639   4.08876
 Alpha virt. eigenvalues --    4.08876   4.12141   4.12141   4.14248   4.14248
 Alpha virt. eigenvalues --    4.15954   6.55336   6.55336   6.55345   6.55345
 Alpha virt. eigenvalues --    6.55380   6.55380   6.55460   7.39512   7.93133
 Alpha virt. eigenvalues --    7.93133   7.96288   8.38902   8.38902   8.39100
 Alpha virt. eigenvalues --    8.39100   8.40033  13.05304
  Beta  occ. eigenvalues --   -7.70148  -0.54532  -0.31879
  Beta virt. eigenvalues --    0.01714   0.02365   0.02365   0.05177   0.06947
  Beta virt. eigenvalues --    0.07729   0.07729   0.11179   0.14319   0.14319
  Beta virt. eigenvalues --    0.14566   0.14566   0.15534   0.20360   0.20360
  Beta virt. eigenvalues --    0.24648   0.28463   0.31226   0.31226   0.34527
  Beta virt. eigenvalues --    0.45414   0.46187   0.46187   0.46706   0.46706
  Beta virt. eigenvalues --    0.46992   0.46992   0.48850   0.49331   0.49331
  Beta virt. eigenvalues --    0.50053   0.50053   0.52783   0.62896   0.62896
  Beta virt. eigenvalues --    0.63821   0.63821   0.66372   0.81746   0.81746
  Beta virt. eigenvalues --    0.86842   1.03703   1.05091   1.05091   1.37001
  Beta virt. eigenvalues --    1.37001   1.37929   1.37929   1.38593   1.38593
  Beta virt. eigenvalues --    1.38997   1.38997   1.39011   1.39248   1.40602
  Beta virt. eigenvalues --    1.40602   1.41106   1.41106   1.42555   1.43913
  Beta virt. eigenvalues --    1.43913   1.44742   1.44742   1.45338   1.45338
  Beta virt. eigenvalues --    1.47390   1.57346   1.57346   1.57378   1.57378
  Beta virt. eigenvalues --    1.57560   1.57560   1.58056   1.70519   2.48963
  Beta virt. eigenvalues --    2.48963   2.49304   2.49304   2.50386   2.62670
  Beta virt. eigenvalues --    2.62670   2.66988   3.73717   3.73717   3.74303
  Beta virt. eigenvalues --    3.91966   3.91966   3.93478   3.93478   3.94559
  Beta virt. eigenvalues --    3.94559   3.95216   3.95216   3.95507   3.95601
  Beta virt. eigenvalues --    3.95601   3.96547   3.96547   3.97856   4.08607
  Beta virt. eigenvalues --    4.08607   4.09996   4.09996   4.10913   4.10913
  Beta virt. eigenvalues --    4.12193   6.58221   6.58221   6.58229   6.58229
  Beta virt. eigenvalues --    6.58264   6.58264   6.58343   7.47712   7.98931
  Beta virt. eigenvalues --    7.98931   8.02050   8.43126   8.43126   8.43322
  Beta virt. eigenvalues --    8.43322   8.44250  13.04126
          Condensed to atoms (all electrons):
               1          2
     1  B    4.999792   0.000077
     2  H    0.000077   1.000055
          Atomic-Atomic Spin Densities.
               1          2
     1  B   -0.999974  -0.000037
     2  H   -0.000037   1.000048
 Mulliken charges and spin densities:
               1          2
     1  B    0.000132  -1.000011
     2  H   -0.000132   1.000011
 Sum of Mulliken charges =  -0.00000   0.00000
 Mulliken charges and spin densities with hydrogens summed into heavy atoms:
               1          2
     1  B   -0.000000   0.000000
 Electronic spatial extent (au):  <R**2>=            105.6153
 Charge=             -0.0000 electrons
 Dipole moment (field-independent basis, Debye):
    X=              0.0000    Y=             -0.0000    Z=              0.0088  Tot=              0.0088
 Quadrupole moment (field-independent basis, Debye-Ang):
   XX=             -7.3050   YY=             -7.3050   ZZ=            -10.7283
   XY=              0.0000   XZ=              0.0000   YZ=              0.0000
 Traceless Quadrupole moment (field-independent basis, Debye-Ang):
   XX=              1.1411   YY=              1.1411   ZZ=             -2.2822
   XY=              0.0000   XZ=              0.0000   YZ=              0.0000
 Octapole moment (field-independent basis, Debye-Ang**2):
  XXX=              0.0000  YYY=             -0.0000  ZZZ=             -6.4881  XYY=              0.0000
  XXY=             -0.0000  XXZ=              0.7047  XZZ=              0.0000  YZZ=             -0.0000
  YYZ=              0.7047  XYZ=              0.0000
 Hexadecapole moment (field-independent basis, Debye-Ang**3):
 XXXX=            -10.7259 YYYY=            -10.7259 ZZZZ=           -233.1766 XXXY=              0.0000
 XXXZ=              0.0000 YYYX=              0.0000 YYYZ=             -0.0000 ZZZX=              0.0000
 ZZZY=              0.0000 XXYY=             -3.5753 XXZZ=            -37.4697 YYZZ=            -37.4697
 XXYZ=             -0.0000 YYXZ=              0.0000 ZZXY=             -0.0000
 N-N= 4.899788990000D-01 E-N=-5.888236730797D+01  KE= 2.503232757537D+01
 Symmetry A1   KE= 2.503232757537D+01
 Symmetry A2   KE= 1.704060919054D-30
 Symmetry B1   KE= 1.268093167544D-29
 Symmetry B2   KE= 1.605505986081D-29
 Symmetry A1   SP= 2.831214971609D-14
 Symmetry A2   SP=-1.371681449985D-31
 Symmetry B1   SP= 2.851023682737D-31
 Symmetry B2   SP=-7.343042185352D-31
                          Isotropic Fermi Contact Couplings
        Atom                 a.u.       MegaHertz       Gauss      10(-4) cm-1
     1  B(11)             -0.00231      -1.65507      -0.59057      -0.55207
     2  H(1)               0.29855     667.23347     238.08549     222.56513
 --------------------------------------------------------
       Center         ----  Spin Dipole Couplings  ----
                      3XX-RR        3YY-RR        3ZZ-RR
 --------------------------------------------------------
     1   Atom        0.330758      0.330758     -0.661515
     2   Atom        0.001150      0.001150     -0.002300
 --------------------------------------------------------
                        XY            XZ            YZ
 --------------------------------------------------------
     1   Atom        0.000000      0.000000      0.000000
     2   Atom        0.000000      0.000000      0.000000
 --------------------------------------------------------


 ---------------------------------------------------------------------------------
              Anisotropic Spin Dipole Couplings in Principal Axis System
 ---------------------------------------------------------------------------------

       Atom             a.u.   MegaHertz   Gauss  10(-4) cm-1        Axes

              Baa    -0.6615  -113.261   -40.414   -37.780  0.0000  0.0000  1.0000
     1 B(11)  Bbb     0.3308    56.631    20.207    18.890  1.0000  0.0000  0.0000
              Bcc     0.3308    56.631    20.207    18.890 -0.0000  1.0000  0.0000
 
              Baa    -0.0023    -1.227    -0.438    -0.409  0.0000  0.0000  1.0000
     2 H(1)   Bbb     0.0011     0.614     0.219     0.205 -0.0000  1.0000  0.0000
              Bcc     0.0011     0.614     0.219     0.205  1.0000  0.0000  0.0000
 

 ---------------------------------------------------------------------------------

 No NMR shielding tensors so no spin-rotation constants.
 Leave Link  601 at Sun May 22 10:56:25 2022, MaxMem=   104857600 cpu:               0.2 elap:               0.2
 (Enter /apps/software/g16/l801.exe)
 Range of M.O.s used for correlation:     1   126
 NBasis=   126 NAE=     3 NBE=     3 NFC=     0 NFV=     0
 NROrb=    126 NOA=     3 NOB=     3 NVA=   123 NVB=   123
 Leave Link  801 at Sun May 22 10:56:25 2022, MaxMem=   104857600 cpu:               0.0 elap:               0.0
 (Enter /apps/software/g16/l914.exe)
 UHF ground state
 Doing stability rather than CIS.
 Keep R1 and R2 ints in memory in symmetry-blocked form, NReq=40144005.
 FoFCou: FMM=F IPFlag=           0 FMFlag=           0 FMFlg1=           0
         NFxFlg=           0 DoJE=F BraDBF=F KetDBF=F FulRan=T
         wScrn=  0.000000 ICntrl=       600 IOpCl=  0 I1Cent=           0 NGrid=           0
         NMat0=    1 NMatS0=   8001 NMatT0=    0 NMatD0=    1 NMtDS0=    0 NMtDT0=    0
 Petite list used in FoFCou.
 MDV=   104857600 DFT=F DoStab=T Mixed=F DoRPA=F DoScal=F NonHer=F
 Making orbital integer symmetry assigments:
 Orbital symmetries:
 Alpha Orbitals:
       Occupied  (SG) (SG) (SG)
       Virtual   (PI) (PI) (SG) (SG) (SG) (PI) (PI) (SG) (PI) (PI)
                 (DLTA) (DLTA) (SG) (PI) (PI) (SG) (PI) (PI) (SG)
                 (SG) (SG) (PHI) (PHI) (DLTA) (DLTA) (PI) (PI)
                 (SG) (DLTA) (DLTA) (PI) (PI) (SG) (DLTA) (DLTA)
                 (PI) (PI) (SG) (PI) (PI) (SG) (PI) (PI) (SG) (?A)
                 (?A) (PHI) (PHI) (DLTA) (DLTA) (PI) (PI) (SG)
                 (DLTA) (DLTA) (SG) (PHI) (PHI) (PI) (PI) (DLTA)
                 (DLTA) (SG) (PI) (PI) (SG) (PHI) (PHI) (DLTA)
                 (DLTA) (PI) (PI) (SG) (SG) (DLTA) (DLTA) (PI)
                 (PI) (SG) (PI) (PI) (SG) (PI) (PI) (SG) (?A) (?A)
                 (PHI) (PHI) (DLTA) (DLTA) (DLTA) (DLTA) (PI) (PI)
                 (SG) (PI) (PI) (SG) (PHI) (PHI) (DLTA) (DLTA)
                 (PI) (PI) (SG) (PHI) (PHI) (DLTA) (DLTA) (PI)
                 (PI) (SG) (SG) (PI) (PI) (SG) (DLTA) (DLTA) (PI)
                 (PI) (SG) (SG)
 Beta  Orbitals:
       Occupied  (SG) (SG) (SG)
       Virtual   (SG) (PI) (PI) (SG) (SG) (PI) (PI) (SG) (PI) (PI)
                 (DLTA) (DLTA) (SG) (PI) (PI) (SG) (SG) (PI) (PI)
                 (SG) (SG) (PHI) (PHI) (DLTA) (DLTA) (PI) (PI)
                 (SG) (PI) (PI) (DLTA) (DLTA) (SG) (DLTA) (DLTA)
                 (PI) (PI) (SG) (PI) (PI) (SG) (SG) (PI) (PI) (?A)
                 (?A) (PHI) (PHI) (DLTA) (DLTA) (PI) (PI) (SG)
                 (SG) (PI) (PI) (DLTA) (DLTA) (SG) (PHI) (PHI)
                 (DLTA) (DLTA) (PI) (PI) (SG) (PHI) (PHI) (DLTA)
                 (DLTA) (PI) (PI) (SG) (SG) (DLTA) (DLTA) (PI)
                 (PI) (SG) (PI) (PI) (SG) (PI) (PI) (SG) (?A) (?A)
                 (PHI) (PHI) (DLTA) (DLTA) (PI) (PI) (SG) (DLTA)
                 (DLTA) (PI) (PI) (SG) (PHI) (PHI) (DLTA) (DLTA)
                 (PI) (PI) (SG) (PHI) (PHI) (DLTA) (DLTA) (PI)
                 (PI) (SG) (SG) (PI) (PI) (SG) (DLTA) (DLTA) (PI)
                 (PI) (SG) (SG)
    12 initial guesses have been made.
 Convergence on wavefunction:    0.001000000000000
 Davidson Disk Diagonalization:  ConvIn= 1.00D-03 SkipCon=T Conv= 1.00D-03.
 Max sub-space:  1476 roots to seek:    12 dimension of matrix:          738
 Iteration     1 Dimension    12 NMult     0 NNew     12
 CISAX will form    12 AO SS matrices at one time.
 NMat=    12 NSing=    12 JSym2X= 2.
 Excitation Energies [eV] at current iteration:
 Root      1 :     0.479619350801724
 Root      2 :     0.479619350801772
 Root      3 :     1.267694783558143
 Root      4 :     1.267694783558191
 Root      5 :     5.516420417637275
 Root      6 :     6.528731936903513
 Root      7 :     6.563426299580040
 Root      8 :     6.563426299580064
 Root      9 :    11.609824949810351
 Root     10 :    11.609824949810381
 Root     11 :    13.512438177895646
 Root     12 :    13.512438177895696
 Iteration     2 Dimension    24 NMult    12 NNew     12
 CISAX will form    12 AO SS matrices at one time.
 NMat=    12 NSing=    12 JSym2X= 2.
 Root      1 not converged, maximum delta is    0.066521475361537
 Excitation Energies [eV] at current iteration:
 Root      1 :     0.006010770117126   Change is   -0.473608580684598
 Root      2 :     0.006010770117174   Change is   -0.473608580684598
 Root      3 :     0.832149380458379   Change is   -0.435545403099764
 Root      4 :     0.832149380458403   Change is   -0.435545403099788
 Root      5 :     5.215412904294401   Change is   -0.301007513342874
 Root      6 :     6.081275418555005   Change is   -0.447456518348508
 Root      7 :     6.488621653971335   Change is   -0.074804645608729
 Root      8 :     6.488621653971371   Change is   -0.074804645608669
 Root      9 :     8.484831464271632   Change is   -3.124993485538718
 Root     10 :     8.484831464271663   Change is   -3.124993485538718
 Root     11 :    11.879262764260250   Change is   -1.633175413635396
 Root     12 :    11.879262764260311   Change is   -1.633175413635384
 Iteration     3 Dimension    27 NMult    24 NNew      3
 CISAX will form     3 AO SS matrices at one time.
 NMat=     3 NSing=     3 JSym2X= 2.
 Root      1 not converged, maximum delta is    0.006315617152873
 Excitation Energies [eV] at current iteration:
 Root      1 :     0.000192424560236   Change is   -0.005818345556889
 Root      2 :     0.000192425958630   Change is   -0.005818344158545
 Root      3 :     0.819498971858107   Change is   -0.012650408600272
 Iteration     4 Dimension    30 NMult    27 NNew      3
 CISAX will form     3 AO SS matrices at one time.
 NMat=     3 NSing=     3 JSym2X= 2.
 Root      1 has converged.
 Excitation Energies [eV] at current iteration:
 Root      1 :     0.000131064269725   Change is   -0.000061360290512
 Root      2 :     0.000131064757676   Change is   -0.000061361200954
 Root      3 :     0.819344487126588   Change is   -0.000154484731519
 Convergence achieved on expansion vectors.
 ***********************************************************************
 Stability analysis using <AA,BB:AA,BB> singles matrix:
 ***********************************************************************
 1PDM for each excited state written to RWF  633
 Ground to excited state transition densities written to RWF  633

 Eigenvectors of the stability matrix:
 
 Excited state symmetry could not be determined.
 Eigenvector   1:  2.272-?Sym  Eigenvalue= 0.0000048  <S**2>=1.041
      3B ->  5B        0.10287
      3B ->  6B       -0.67755
      3B -> 10B        0.64726
      3B -> 21B       -0.12530
      3B -> 22B        0.25973
 The wavefunction is stable under the perturbations considered.
 Leave Link  914 at Sun May 22 10:56:28 2022, MaxMem=   104857600 cpu:               3.8 elap:               3.8
 (Enter /apps/software/g16/l508.exe)
 The wavefunction is already stable.
 Leave Link  508 at Sun May 22 10:56:28 2022, MaxMem=   104857600 cpu:               0.0 elap:               0.0
 (Enter /apps/software/g16/l601.exe)
 Copying SCF densities to generalized density rwf, IOpCl= 1 IROHF=0.

 **********************************************************************

            Population analysis using the SCF density.

 **********************************************************************

 Orbital symmetries:
 Alpha Orbitals:
       Occupied  (SG) (SG) (SG)
       Virtual   (PI) (PI) (SG) (SG) (SG) (PI) (PI) (SG) (PI) (PI)
                 (DLTA) (DLTA) (SG) (PI) (PI) (SG) (PI) (PI) (SG)
                 (SG) (SG) (PHI) (PHI) (DLTA) (DLTA) (PI) (PI)
                 (SG) (DLTA) (DLTA) (PI) (PI) (SG) (DLTA) (DLTA)
                 (PI) (PI) (SG) (PI) (PI) (SG) (PI) (PI) (SG) (?A)
                 (?A) (PHI) (PHI) (DLTA) (DLTA) (PI) (PI) (SG)
                 (DLTA) (DLTA) (SG) (PHI) (PHI) (PI) (PI) (DLTA)
                 (DLTA) (SG) (PI) (PI) (SG) (PHI) (PHI) (DLTA)
                 (DLTA) (PI) (PI) (SG) (SG) (DLTA) (DLTA) (PI)
                 (PI) (SG) (PI) (PI) (SG) (PI) (PI) (SG) (?A) (?A)
                 (PHI) (PHI) (DLTA) (DLTA) (DLTA) (DLTA) (PI) (PI)
                 (SG) (PI) (PI) (SG) (PHI) (PHI) (DLTA) (DLTA)
                 (PI) (PI) (SG) (PHI) (PHI) (DLTA) (DLTA) (PI)
                 (PI) (SG) (SG) (PI) (PI) (SG) (DLTA) (DLTA) (PI)
                 (PI) (SG) (SG)
 Beta  Orbitals:
       Occupied  (SG) (SG) (SG)
       Virtual   (SG) (PI) (PI) (SG) (SG) (PI) (PI) (SG) (PI) (PI)
                 (DLTA) (DLTA) (SG) (PI) (PI) (SG) (SG) (PI) (PI)
                 (SG) (SG) (PHI) (PHI) (DLTA) (DLTA) (PI) (PI)
                 (SG) (PI) (PI) (DLTA) (DLTA) (SG) (DLTA) (DLTA)
                 (PI) (PI) (SG) (PI) (PI) (SG) (SG) (PI) (PI) (?A)
                 (?A) (PHI) (PHI) (DLTA) (DLTA) (PI) (PI) (SG)
                 (SG) (PI) (PI) (DLTA) (DLTA) (SG) (PHI) (PHI)
                 (DLTA) (DLTA) (PI) (PI) (SG) (PHI) (PHI) (DLTA)
                 (DLTA) (PI) (PI) (SG) (SG) (DLTA) (DLTA) (PI)
                 (PI) (SG) (PI) (PI) (SG) (PI) (PI) (SG) (?A) (?A)
                 (PHI) (PHI) (DLTA) (DLTA) (PI) (PI) (SG) (DLTA)
                 (DLTA) (PI) (PI) (SG) (PHI) (PHI) (DLTA) (DLTA)
                 (PI) (PI) (SG) (PHI) (PHI) (DLTA) (DLTA) (PI)
                 (PI) (SG) (SG) (PI) (PI) (SG) (DLTA) (DLTA) (PI)
                 (PI) (SG) (SG)
 The electronic state is 1-SG.
 Alpha  occ. eigenvalues --   -7.68634  -0.49759  -0.44627
 Alpha virt. eigenvalues --    0.02741   0.02741   0.04307   0.05072   0.07288
 Alpha virt. eigenvalues --    0.08427   0.08427   0.11905   0.14396   0.14396
 Alpha virt. eigenvalues --    0.14574   0.14574   0.15243   0.18791   0.18791
 Alpha virt. eigenvalues --    0.24164   0.32043   0.32043   0.35022   0.35911
 Alpha virt. eigenvalues --    0.37536   0.46180   0.46180   0.47110   0.47110
 Alpha virt. eigenvalues --    0.47600   0.47600   0.48647   0.50162   0.50162
 Alpha virt. eigenvalues --    0.52327   0.52327   0.55389   0.61557   0.61557
 Alpha virt. eigenvalues --    0.62575   0.62575   0.65016   0.75103   0.75103
 Alpha virt. eigenvalues --    0.81278   1.06030   1.06030   1.11334   1.36973
 Alpha virt. eigenvalues --    1.36973   1.38445   1.38445   1.39489   1.39489
 Alpha virt. eigenvalues --    1.40153   1.40153   1.40409   1.41595   1.41595
 Alpha virt. eigenvalues --    1.42487   1.43977   1.43977   1.45486   1.45486
 Alpha virt. eigenvalues --    1.46369   1.46369   1.47487   1.47944   1.47944
 Alpha virt. eigenvalues --    1.50199   1.56088   1.56088   1.56121   1.56121
 Alpha virt. eigenvalues --    1.56339   1.56339   1.56658   1.59946   2.45015
 Alpha virt. eigenvalues --    2.45015   2.45360   2.45360   2.46353   2.55185
 Alpha virt. eigenvalues --    2.55185   2.59796   3.74436   3.74436   3.79296
 Alpha virt. eigenvalues --    3.92035   3.92035   3.94568   3.94568   3.96050
 Alpha virt. eigenvalues --    3.96050   3.96496   3.96496   3.97504   3.97504
 Alpha virt. eigenvalues --    3.97916   4.00216   4.00216   4.02639   4.08876
 Alpha virt. eigenvalues --    4.08876   4.12141   4.12141   4.14248   4.14248
 Alpha virt. eigenvalues --    4.15954   6.55336   6.55336   6.55345   6.55345
 Alpha virt. eigenvalues --    6.55380   6.55380   6.55460   7.39512   7.93133
 Alpha virt. eigenvalues --    7.93133   7.96288   8.38902   8.38902   8.39100
 Alpha virt. eigenvalues --    8.39100   8.40033  13.05304
  Beta  occ. eigenvalues --   -7.70148  -0.54532  -0.31879
  Beta virt. eigenvalues --    0.01714   0.02365   0.02365   0.05177   0.06947
  Beta virt. eigenvalues --    0.07729   0.07729   0.11179   0.14319   0.14319
  Beta virt. eigenvalues --    0.14566   0.14566   0.15534   0.20360   0.20360
  Beta virt. eigenvalues --    0.24648   0.28463   0.31226   0.31226   0.34527
  Beta virt. eigenvalues --    0.45414   0.46187   0.46187   0.46706   0.46706
  Beta virt. eigenvalues --    0.46992   0.46992   0.48850   0.49331   0.49331
  Beta virt. eigenvalues --    0.50053   0.50053   0.52783   0.62896   0.62896
  Beta virt. eigenvalues --    0.63821   0.63821   0.66372   0.81746   0.81746
  Beta virt. eigenvalues --    0.86842   1.03703   1.05091   1.05091   1.37001
  Beta virt. eigenvalues --    1.37001   1.37929   1.37929   1.38593   1.38593
  Beta virt. eigenvalues --    1.38997   1.38997   1.39011   1.39248   1.40602
  Beta virt. eigenvalues --    1.40602   1.41106   1.41106   1.42555   1.43913
  Beta virt. eigenvalues --    1.43913   1.44742   1.44742   1.45338   1.45338
  Beta virt. eigenvalues --    1.47390   1.57346   1.57346   1.57378   1.57378
  Beta virt. eigenvalues --    1.57560   1.57560   1.58056   1.70519   2.48963
  Beta virt. eigenvalues --    2.48963   2.49304   2.49304   2.50386   2.62670
  Beta virt. eigenvalues --    2.62670   2.66988   3.73717   3.73717   3.74303
  Beta virt. eigenvalues --    3.91966   3.91966   3.93478   3.93478   3.94559
  Beta virt. eigenvalues --    3.94559   3.95216   3.95216   3.95507   3.95601
  Beta virt. eigenvalues --    3.95601   3.96547   3.96547   3.97856   4.08607
  Beta virt. eigenvalues --    4.08607   4.09996   4.09996   4.10913   4.10913
  Beta virt. eigenvalues --    4.12193   6.58221   6.58221   6.58229   6.58229
  Beta virt. eigenvalues --    6.58264   6.58264   6.58343   7.47712   7.98931
  Beta virt. eigenvalues --    7.98931   8.02050   8.43126   8.43126   8.43322
  Beta virt. eigenvalues --    8.43322   8.44250  13.04126
          Condensed to atoms (all electrons):
               1          2
     1  B    4.999792   0.000077
     2  H    0.000077   1.000055
          Atomic-Atomic Spin Densities.
               1          2
     1  B   -0.999974  -0.000037
     2  H   -0.000037   1.000048
 Mulliken charges and spin densities:
               1          2
     1  B    0.000132  -1.000011
     2  H   -0.000132   1.000011
 Sum of Mulliken charges =  -0.00000   0.00000
 Mulliken charges and spin densities with hydrogens summed into heavy atoms:
               1          2
     1  B   -0.000000   0.000000
 Electronic spatial extent (au):  <R**2>=            105.6153
 Charge=             -0.0000 electrons
 Dipole moment (field-independent basis, Debye):
    X=              0.0000    Y=             -0.0000    Z=              0.0088  Tot=              0.0088
 Quadrupole moment (field-independent basis, Debye-Ang):
   XX=             -7.3050   YY=             -7.3050   ZZ=            -10.7283
   XY=              0.0000   XZ=              0.0000   YZ=              0.0000
 Traceless Quadrupole moment (field-independent basis, Debye-Ang):
   XX=              1.1411   YY=              1.1411   ZZ=             -2.2822
   XY=              0.0000   XZ=              0.0000   YZ=              0.0000
 Octapole moment (field-independent basis, Debye-Ang**2):
  XXX=              0.0000  YYY=             -0.0000  ZZZ=             -6.4881  XYY=              0.0000
  XXY=             -0.0000  XXZ=              0.7047  XZZ=              0.0000  YZZ=             -0.0000
  YYZ=              0.7047  XYZ=              0.0000
 Hexadecapole moment (field-independent basis, Debye-Ang**3):
 XXXX=            -10.7259 YYYY=            -10.7259 ZZZZ=           -233.1766 XXXY=              0.0000
 XXXZ=              0.0000 YYYX=              0.0000 YYYZ=             -0.0000 ZZZX=              0.0000
 ZZZY=              0.0000 XXYY=             -3.5753 XXZZ=            -37.4697 YYZZ=            -37.4697
 XXYZ=             -0.0000 YYXZ=              0.0000 ZZXY=             -0.0000
 N-N= 4.899788990000D-01 E-N=-5.888236730797D+01  KE= 2.503232757537D+01
 Symmetry A1   KE= 2.503232757537D+01
 Symmetry A2   KE= 1.704060919054D-30
 Symmetry B1   KE= 1.268093167544D-29
 Symmetry B2   KE= 1.605505986081D-29
 Symmetry A1   SP= 2.831214971609D-14
 Symmetry A2   SP=-1.371681449985D-31
 Symmetry B1   SP= 2.851023682737D-31
 Symmetry B2   SP=-7.343042185352D-31
                          Isotropic Fermi Contact Couplings
        Atom                 a.u.       MegaHertz       Gauss      10(-4) cm-1
     1  B(11)             -0.00231      -1.65507      -0.59057      -0.55207
     2  H(1)               0.29855     667.23347     238.08549     222.56513
 --------------------------------------------------------
       Center         ----  Spin Dipole Couplings  ----
                      3XX-RR        3YY-RR        3ZZ-RR
 --------------------------------------------------------
     1   Atom        0.330758      0.330758     -0.661515
     2   Atom        0.001150      0.001150     -0.002300
 --------------------------------------------------------
                        XY            XZ            YZ
 --------------------------------------------------------
     1   Atom        0.000000      0.000000      0.000000
     2   Atom        0.000000      0.000000      0.000000
 --------------------------------------------------------


 ---------------------------------------------------------------------------------
              Anisotropic Spin Dipole Couplings in Principal Axis System
 ---------------------------------------------------------------------------------

       Atom             a.u.   MegaHertz   Gauss  10(-4) cm-1        Axes

              Baa    -0.6615  -113.261   -40.414   -37.780  0.0000  0.0000  1.0000
     1 B(11)  Bbb     0.3308    56.631    20.207    18.890  1.0000  0.0000  0.0000
              Bcc     0.3308    56.631    20.207    18.890 -0.0000  1.0000  0.0000
 
              Baa    -0.0023    -1.227    -0.438    -0.409  0.0000  0.0000  1.0000
     2 H(1)   Bbb     0.0011     0.614     0.219     0.205 -0.0000  1.0000  0.0000
              Bcc     0.0011     0.614     0.219     0.205  1.0000  0.0000  0.0000
 

 ---------------------------------------------------------------------------------

 No NMR shielding tensors so no spin-rotation constants.
 Leave Link  601 at Sun May 22 10:56:29 2022, MaxMem=   104857600 cpu:               0.2 elap:               0.2
 (Enter /apps/software/g16/l9999.exe)
 1\1\GINC-CNODE16\Stability\UHF\Aug-CC-pVQZ\B1H1\LCZ\22-May-2022\0\\#p 
 UHF/aug-cc-pVQZ guess=mix stable=opt\\BH UHF at 5.4 Angstrom\\0,1\B,0,
 0.,0.,0.\H,0,5.4,0.,0.\\Version=ES64L-G16RevA.03\State=1-SG\HF=-25.032
 9355\S2=1.011227\S2-1=0.\S2A=0.089588\RMSD=2.278e-09\Dipole=-0.0034557
 ,0.,0.\Quadrupole=-1.6967853,0.8483926,0.8483926,0.,0.,0.\PG=C*V [C*(H
 1B1)]\\@


 EVANS BOLDLY PUT 50 ATM. OF ETHYLENE IN A CELL WITH 25 ATM. OF OXYGEN.
 THE APPARATUS SUBSEQUENTLY BLEW UP, BUT LUCKILY NOT BEFORE HE
 OBTAINED THE SPECTRA SHOWN IN FIGURE 8.
 A.J.MERER AND R.S.MULLIKEN, CHEM.REV. 69, 645 (1969)
 Job cpu time:       0 days  0 hours  0 minutes  8.6 seconds.
 Elapsed time:       0 days  0 hours  0 minutes  8.6 seconds.
 File lengths (MBytes):  RWF=     29 Int=      0 D2E=      0 Chk=      4 Scr=      1
 Normal termination of Gaussian 16 at Sun May 22 10:56:29 2022.

Sender: Unischeduler System <lcz@mgt01>
Subject: Job 133853: <#!/bin/bash
#BSUB -J intel
#BSUB -o BH-5.4-UHF-G.out
#BSUB -n 8
#BSUB -q cqueue
#BSUB -R span[hosts=1]
export g16root=/apps/software
source /apps/software/g16/bsd/g16.profile
export GAUSS_SCRDIR=/scratch
/apps/software/g16/g16 < BH-5.4-UHF-G.inp > BH-5.4-UHF-G.out> Done

Job <#!/bin/bash
#BSUB -J intel
#BSUB -o BH-5.4-UHF-G.out
#BSUB -n 8
#BSUB -q cqueue
#BSUB -R span[hosts=1]
export g16root=/apps/software
source /apps/software/g16/bsd/g16.profile
export GAUSS_SCRDIR=/scratch
/apps/software/g16/g16 < BH-5.4-UHF-G.inp > BH-5.4-UHF-G.out> was submitted from host <mgt01> by user <lcz>.
Job was executed on host(s) <8*cnode16>, in queue <cqueue>, as user <lcz>.
</apps/users/lcz> was used as the home directory.
</apps/users/lcz/exe13/UMP2> was used as the working directory.
Started at 2022-05-22 10:56:20
Results reported at 2022-05-22 10:56:29

Your job looked like:

------------------------------------------------------------
# User input
#!/bin/bash
#BSUB -J intel
#BSUB -o BH-5.4-UHF-G.out
#BSUB -n 8
#BSUB -q cqueue
#BSUB -R span[hosts=1]
export g16root=/apps/software
source /apps/software/g16/bsd/g16.profile
export GAUSS_SCRDIR=/scratch
/apps/software/g16/g16 < BH-5.4-UHF-G.inp > BH-5.4-UHF-G.out
------------------------------------------------------------

Successfully completed.

Resource usage summary:

    CPU time   :            8.51 sec.
    Max Memory :               228 MB
    Max Processes  :               5


The output (if any) follows:

