
                                        *****************
                                        * O   R   C   A *
                                        *****************

                                            #,                                       
                                            ###                                      
                                            ####                                     
                                            #####                                    
                                            ######                                   
                                           ########,                                 
                                     ,,################,,,,,                         
                               ,,#################################,,                 
                          ,,##########################################,,             
                       ,#########################################, ''#####,          
                    ,#############################################,,   '####,        
                  ,##################################################,,,,####,       
                ,###########''''           ''''###############################       
              ,#####''   ,,,,##########,,,,          '''####'''          '####       
            ,##' ,,,,###########################,,,                        '##       
           ' ,,###''''                  '''############,,,                           
         ,,##''                                '''############,,,,        ,,,,,,###''
      ,#''                                            '''#######################'''  
     '                                                          ''''####''''         
             ,#######,   #######,   ,#######,      ##                                
            ,#'     '#,  ##    ##  ,#'     '#,    #''#        ######   ,####,        
            ##       ##  ##   ,#'  ##            #'  '#       #        #'  '#        
            ##       ##  #######   ##           ,######,      #####,   #    #        
            '#,     ,#'  ##    ##  '#,     ,#' ,#      #,         ##   #,  ,#        
             '#######'   ##     ##  '#######'  #'      '#     #####' # '####'        



                  #######################################################
                  #                        -***-                        #
                  #          Department of theory and spectroscopy      #
                  #    Directorship and core code : Frank Neese         #
                  #        Max Planck Institute fuer Kohlenforschung    #
                  #                Kaiser Wilhelm Platz 1               #
                  #                 D-45470 Muelheim/Ruhr               #
                  #                      Germany                        #
                  #                                                     #
                  #                  All rights reserved                #
                  #                        -***-                        #
                  #######################################################


                         Program Version 5.0.0 -  RELEASE  -
                                (SVN: $Rev: 19529$)
                ($Date: 2021-06-28 11:36:33 +0200 (Mo, 28 Jun 2021) $)


 With contributions from (in alphabetic order):
   Daniel Aravena         : Magnetic Suceptibility
   Michael Atanasov       : Ab Initio Ligand Field Theory (pilot matlab implementation)
   Alexander A. Auer      : GIAO ZORA, VPT2 properties, NMR spectrum
   Ute Becker             : Parallelization
   Giovanni Bistoni       : ED, misc. LED, open-shell LED, HFLD
   Martin Brehm           : Molecular dynamics
   Dmytro Bykov           : SCF Hessian
   Vijay G. Chilkuri      : MRCI spin determinant printing, contributions to CSF-ICE
   Dipayan Datta          : RHF DLPNO-CCSD density
   Achintya Kumar Dutta   : EOM-CC, STEOM-CC
   Dmitry Ganyushin       : Spin-Orbit,Spin-Spin,Magnetic field MRCI
   Miquel Garcia          : C-PCM Hessian, Gaussian charge scheme
   Yang Guo               : DLPNO-NEVPT2, F12-NEVPT2, CIM, IAO-localization
   Andreas Hansen         : Spin unrestricted coupled pair/coupled cluster methods
   Benjamin Helmich-Paris : MC-RPA, TRAH-SCF, COSX integrals
   Lee Huntington         : MR-EOM, pCC
   Robert Izsak           : Overlap fitted RIJCOSX, COSX-SCS-MP3, EOM
   Marcus Kettner         : VPT2
   Christian Kollmar      : KDIIS, OOCD, Brueckner-CCSD(T), CCSD density, CASPT2, CASPT2-K
   Simone Kossmann        : Meta GGA functionals, TD-DFT gradient, OOMP2, MP2 Hessian
   Martin Krupicka        : Initial AUTO-CI
   Lucas Lang             : DCDCAS
   Marvin Lechner         : AUTO-CI (C++ implementation), FIC-MRCC
   Dagmar Lenk            : GEPOL surface, SMD
   Dimitrios Liakos       : Extrapolation schemes; Compound Job, initial MDCI parallelization
   Dimitrios Manganas     : Further ROCIS development; embedding schemes
   Dimitrios Pantazis     : SARC Basis sets
   Anastasios Papadopoulos: AUTO-CI, single reference methods and gradients
   Taras Petrenko         : DFT Hessian,TD-DFT gradient, ASA, ECA, R-Raman, ABS, FL, XAS/XES, NRVS
   Peter Pinski           : DLPNO-MP2, DLPNO-MP2 Gradient
   Christoph Reimann      : Effective Core Potentials
   Marius Retegan         : Local ZFS, SOC
   Christoph Riplinger    : Optimizer, TS searches, QM/MM, DLPNO-CCSD(T), (RO)-DLPNO pert. Triples
   Tobias Risthaus        : Range-separated hybrids, TD-DFT gradient, RPA, STAB
   Michael Roemelt        : Original ROCIS implementation
   Masaaki Saitow         : Open-shell DLPNO-CCSD energy and density
   Barbara Sandhoefer     : DKH picture change effects
   Avijit Sen             : IP-ROCIS
   Kantharuban Sivalingam : CASSCF convergence, NEVPT2, FIC-MRCI
   Bernardo de Souza      : ESD, SOC TD-DFT
   Georgi Stoychev        : AutoAux, RI-MP2 NMR
   Willem Van den Heuvel  : Paramagnetic NMR
   Boris Wezisla          : Elementary symmetry handling
   Frank Wennmohs         : Technical directorship


 We gratefully acknowledge several colleagues who have allowed us to
 interface, adapt or use parts of their codes:
   Stefan Grimme, W. Hujo, H. Kruse, P. Pracht,  : VdW corrections, initial TS optimization,
                  C. Bannwarth, S. Ehlert          DFT functionals, gCP, sTDA/sTD-DF
   Ed Valeev, F. Pavosevic, A. Kumar             : LibInt (2-el integral package), F12 methods
   Garnet Chan, S. Sharma, J. Yang, R. Olivares  : DMRG
   Ulf Ekstrom                                   : XCFun DFT Library
   Mihaly Kallay                                 : mrcc  (arbitrary order and MRCC methods)
   Jiri Pittner, Ondrej Demel                    : Mk-CCSD
   Frank Weinhold                                : gennbo (NPA and NBO analysis)
   Christopher J. Cramer and Donald G. Truhlar   : smd solvation model
   Lars Goerigk                                  : TD-DFT with DH, B97 family of functionals
   V. Asgeirsson, H. Jonsson                     : NEB implementation
   FAccTs GmbH                                   : IRC, NEB, NEB-TS, DLPNO-Multilevel, CI-OPT
                                                   MM, QMMM, 2- and 3-layer-ONIOM, Crystal-QMMM,
                                                   LR-CPCM, SF, NACMEs, symmetry and pop. for TD-DFT,
                                                   nearIR, NL-DFT gradient (VV10), updates on ESD,
                                                   ML-optimized integration grids
   S Lehtola, MJT Oliveira, MAL Marques          : LibXC Library
   Liviu Ungur et al                             : ANISO software


 Your calculation uses the libint2 library for the computation of 2-el integrals
 For citations please refer to: http://libint.valeyev.net

 Your ORCA version has been built with support for libXC version: 5.1.0
 For citations please refer to: https://tddft.org/programs/libxc/

 This ORCA versions uses:
   CBLAS   interface :  Fast vector & matrix operations
   LAPACKE interface :  Fast linear algebra routines
   SCALAPACK package :  Parallel linear algebra routines
   Shared memory     :  Shared parallel matrices
   BLAS/LAPACK       :  OpenBLAS 0.3.15  USE64BITINT DYNAMIC_ARCH NO_AFFINITY SkylakeX SINGLE_THREADED
        Core in use  :  SkylakeX
   Copyright (c) 2011-2014, The OpenBLAS Project


================================================================================

----- Orbital basis set information -----
Your calculation utilizes the basis: aug-cc-pVQZ 
    H, B-Ne : Obtained from the ccRepo (grant-hill.group.shef.ac.uk/ccrepo) Feb. 2017
              R. A. Kendall, T. H. Dunning, Jr., R. J. Harrison, J. Chem. Phys. 96, 6796 (1992)
         He : Obtained from the ccRepo (grant-hill.group.shef.ac.uk/ccrepo) Feb. 2017
              D. E. Woon, T. H. Dunning, Jr., J. Chem. Phys. 100, 2975 (1994)
  Li-Be, Na : Obtained from the ccRepo (grant-hill.group.shef.ac.uk/ccrepo) Feb. 2017
              B. P. Prascher, D. E. Woon, K. A. Peterson, T. H. Dunning, Jr., A. K. Wilson, Theor. Chem. Acc. 128, 69 (2011)
         Mg : Obtained from the Peterson Research Group Website (tyr0.chem.wsu.edu/~kipeters) Feb. 2017
              B. P. Prascher, D. E. Woon, K. A. Peterson, T. H. Dunning, Jr., A. K. Wilson, Theor. Chem. Acc. 128, 69 (2011)
      Al-Ar : Obtained from the ccRepo (grant-hill.group.shef.ac.uk/ccrepo) Feb. 2017
              D. E. Woon, T. H. Dunning, Jr., J. Chem. Phys. 98, 1358 (1993)
      Sc-Zn : Obtained from the ccRepo (grant-hill.group.shef.ac.uk/ccrepo) Feb. 2017
              N. B. Balabanov, K. A. Peterson, J. Chem. Phys. 123, 064107 (2005)
              N. B. Balabanov, K. A. Peterson, J. Chem. Phys. 125, 074110 (2006)
      Ga-Kr : Obtained from the ccRepo (grant-hill.group.shef.ac.uk/ccrepo) Feb. 2017
              A. K. Wilson, D. E. Woon, K. A. Peterson, T. H. Dunning, Jr., J. Chem. Phys. 110, 7667 (1999)

================================================================================
                                        WARNINGS
                       Please study these warnings very carefully!
================================================================================


INFO   : the flag for use of the SHARK integral package has been found!

================================================================================
                                       INPUT FILE
================================================================================
NAME = /scratch/BH-0.8-O_492/BH-0.8-O.inp
|  1> ! RHF aug-cc-pVQZ pal8 VeryTightSCF UseSym
|  2> 
|  3> *xyz 0 1
|  4>  B	0.0	0.0	0.0
|  5>  H	0.8	0.0	0.0
|  6> **                         ****END OF INPUT****
================================================================================

------------------------------------------------------------------------------
                            SYMMETRY HANDLING SETUP
------------------------------------------------------------------------------

------------------
SYMMETRY DETECTION
------------------
The point group will now be determined using a tolerance of 1.0000e-04.
Splitting atom subsets according to nuclear charge, mass and basis set.
Splitting atom subsets according to distance from the molecule's center.
Identifying relative distance patterns of the atoms.
Splitting atom subsets according to atoms' relative distance patterns.
Bring atoms of each subset into input order.
The molecule is linear.
There is at least one atom subset not centered around the molecule's center.
The molecule does not have a center of inversion.
No further test is needed for point group Cinfv.
This point group has been found:    Cinfv
Largest non-degenerate subgroup:    C2v


Mass-centered symmetry-perfected Cartesians (point groups Cinfv and C2v):

Atom          Symmetry-perfected Cartesians (x, y, z; au)
  0       0.000000000000    0.000000000000   -0.128945266068
  1       0.000000000000    0.000000000000    1.382835641069


-----------------------------------------------
SYMMETRY-PERFECTED CARTESIAN COORDINATES (A.U.)
-----------------------------------------------
Warning (ORCA_SYM): Coordinates were not cleaned so far!

------------------
SYMMETRY REDUCTION
------------------
ORCA supports only abelian point groups.
It is now checked, if the determined point group is supported:
Point Group ( C2v   ) is          ... supported

(Re)building abelian point group:
Creating Character Table          ... done
Making direct product table       ... done
Constructing symmetry operations  ... done
Creating atom transfer table      ... done
Creating asymmetric unit          ... done

----------------------
ASYMMETRIC UNIT IN C2v
----------------------
  #  AT     MASS              COORDS (A.U.)             BAS
   0 B   10.8100   0.00000000   0.00000000  -0.12894527   0
   1 H    1.0080   0.00000000   0.00000000   1.38283564   0

----------------------
SYMMETRY ADAPTED BASIS
----------------------
The coefficients for the symmetry adapted linear combinations (SALCS)
of basis functions will now be computed:
Number of basis functions         ...   126
Preparing memory                  ... done
Constructing Gamma(red)           ... done
Reducing Gamma(red)               ... done
Constructing SALCs                ... done
Checking SALC integrity           ... nothing suspicious
Normalizing SALCs                 ... done

Storing the symmetry object:
Symmetry file                     ... /scratch/BH-0.8-O_492/BH-0.8-O.sym.tmp
Writing symmetry information      ... done

                       ****************************
                       * Single Point Calculation *
                       ****************************

---------------------------------
CARTESIAN COORDINATES (ANGSTROEM)
---------------------------------
  B      0.000000    0.000000   -0.068235
  H      0.000000    0.000000    0.731765

----------------------------
CARTESIAN COORDINATES (A.U.)
----------------------------
  NO LB      ZA    FRAG     MASS         X           Y           Z
   0 B     5.0000    0    10.810    0.000000    0.000000   -0.128945
   1 H     1.0000    0     1.008    0.000000    0.000000    1.382836

--------------------------------
INTERNAL COORDINATES (ANGSTROEM)
--------------------------------
 B      0   0   0     0.000000000000     0.00000000     0.00000000
 H      1   0   0     0.800000000000     0.00000000     0.00000000

---------------------------
INTERNAL COORDINATES (A.U.)
---------------------------
 B      0   0   0     0.000000000000     0.00000000     0.00000000
 H      1   0   0     1.511780907137     0.00000000     0.00000000

---------------------
BASIS SET INFORMATION
---------------------
There are 2 groups of distinct atoms

 Group   1 Type B   : 22s7p4d3f2g contracted to 6s5p4d3f2g pattern {991111/31111/1111/111/11}
 Group   2 Type H   : 7s4p3d2f contracted to 5s4p3d2f pattern {31111/1111/111/11}

Atom   0B    basis set group =>   1
Atom   1H    basis set group =>   2
--------------------------------------------------------------------------
WARNING: There was an error initializing an OpenFabrics device.

  Local host:   cnode12
  Local device: mlx5_0
--------------------------------------------------------------------------


           ************************************************************
           *        Program running with 8 parallel MPI-processes     *
           *              working on a common directory               *
           ************************************************************
------------------------------------------------------------------------------
                           ORCA GTO INTEGRAL CALCULATION
------------------------------------------------------------------------------
------------------------------------------------------------------------------
                   ___                                                        
                  /   \      - P O W E R E D   B Y -                         
                 /     \                                                     
                 |  |  |   _    _      __       _____    __    __             
                 |  |  |  | |  | |    /  \     |  _  \  |  |  /  |          
                  \  \/   | |  | |   /    \    | | | |  |  | /  /          
                 / \  \   | |__| |  /  /\  \   | |_| |  |  |/  /          
                |  |  |   |  __  | /  /__\  \  |    /   |      \           
                |  |  |   | |  | | |   __   |  |    \   |  |\   \          
                \     /   | |  | | |  |  |  |  | |\  \  |  | \   \       
                 \___/    |_|  |_| |__|  |__|  |_| \__\ |__|  \__/        
                                                                              
                      - O R C A' S   B I G   F R I E N D -                    
                                      &                                       
                       - I N T E G R A L  F E E D E R -                       
                                                                              
 v1 FN, 2020, v2 2021                                                         
------------------------------------------------------------------------------


Reading SHARK input file /scratch/BH-0.8-O_492/BH-0.8-O.SHARKINP.tmp ... ok
----------------------
SHARK INTEGRAL PACKAGE
----------------------

Number of atoms                             ...      2
Number of basis functions                   ...    126
Number of shells                            ...     34
Maximum angular momentum                    ...      4
Integral batch strategy                     ... SHARK/LIBINT Hybrid
RI-J (if used) integral strategy            ... SPLIT-RIJ (Revised 2003 algorithm where possible)
Printlevel                                  ...      1
Contraction scheme used                     ... SEGMENTED contraction
Coulomb Range Separation                    ... NOT USED
Exchange Range Separation                   ... NOT USED
Finite Nucleus Model                        ... NOT USED
Auxiliary Coulomb fitting basis             ... NOT available
Auxiliary J/K fitting basis                 ... NOT available
Auxiliary Correlation fitting basis         ... NOT available
Auxiliary 'external' fitting basis          ... NOT available
Integral threshold                          ...     1.000000e-12
Primitive cut-off                           ...     1.000000e-14
Primitive pair pre-selection threshold      ...     1.000000e-14

Calculating pre-screening integrals         ... done (  0.1 sec) Dimension = 34
Organizing shell pair data                  ... done (  0.0 sec)
Shell pair information
Total number of shell pairs                 ...       595
Shell pairs after pre-screening             ...       595
Total number of primitive shell pairs       ...      1563
Primitive shell pairs kept                  ...      1550
          la=0 lb=0:     66 shell pairs
          la=1 lb=0:     99 shell pairs
          la=1 lb=1:     45 shell pairs
          la=2 lb=0:     77 shell pairs
          la=2 lb=1:     63 shell pairs
          la=2 lb=2:     28 shell pairs
          la=3 lb=0:     55 shell pairs
          la=3 lb=1:     45 shell pairs
          la=3 lb=2:     35 shell pairs
          la=3 lb=3:     15 shell pairs
          la=4 lb=0:     22 shell pairs
          la=4 lb=1:     18 shell pairs
          la=4 lb=2:     14 shell pairs
          la=4 lb=3:     10 shell pairs
          la=4 lb=4:      3 shell pairs

Calculating one electron integrals          ... done (  0.0 sec)
Calculating Nuclear repulsion               ... done (  0.0 sec) ENN=      3.307357551875 Eh

SHARK setup successfully completed in   0.1 seconds

Maximum memory used throughout the entire GTOINT-calculation: 28.9 MB
[cnode12:122792] 7 more processes have sent help message help-mpi-btl-openib.txt / error in device init
[cnode12:122792] Set MCA parameter "orte_base_help_aggregate" to 0 to see all help / error messages
--------------------------------------------------------------------------
WARNING: There was an error initializing an OpenFabrics device.

  Local host:   cnode12
  Local device: mlx5_0
--------------------------------------------------------------------------


           ************************************************************
           *        Program running with 8 parallel MPI-processes     *
           *              working on a common directory               *
           ************************************************************
-------------------------------------------------------------------------------
                                 ORCA SCF
-------------------------------------------------------------------------------

------------
SCF SETTINGS
------------
Hamiltonian:
 Ab initio Hamiltonian  Method          .... Hartree-Fock(GTOs)


General Settings:
 Integral files         IntName         .... /scratch/BH-0.8-O_492/BH-0.8-O
 Hartree-Fock type      HFTyp           .... RHF
 Total Charge           Charge          ....    0
 Multiplicity           Mult            ....    1
 Number of Electrons    NEL             ....    6
 Basis Dimension        Dim             ....  126
 Nuclear Repulsion      ENuc            ....      3.3073575519 Eh

 Symmetry handling      UseSym         .... ON
 Point group                           .... C2v
 Used point group                      .... C2v
 Number of irreps                      .... 4
   Irrep   A1 has   50 symmetry adapted basis functions (ofs=   0)
   Irrep   A2 has   16 symmetry adapted basis functions (ofs=  50)
   Irrep   B1 has   30 symmetry adapted basis functions (ofs=  66)
   Irrep   B2 has   30 symmetry adapted basis functions (ofs=  96)

Convergence Acceleration:
 DIIS                   CNVDIIS         .... on
   Start iteration      DIISMaxIt       ....    12
   Startup error        DIISStart       ....  0.200000
   # of expansion vecs  DIISMaxEq       ....     5
   Bias factor          DIISBfac        ....   1.050
   Max. coefficient     DIISMaxC        ....  10.000
 Trust-Rad. Augm. Hess. CNVTRAH         .... auto
   Auto Start mean grad. ratio tolernc. ....  1.125000
   Auto Start start iteration           ....    20
   Auto Start num. interpolation iter.  ....    10
   Max. Number of Micro iterations      ....    16
   Max. Number of Macro iterations      .... Maxiter - #DIIS iter
   Number of Davidson start vectors     ....     2
   Converg. threshold I  (grad. norm)   ....   2.000e-06
   Converg. threshold II (energy diff.) ....   1.000e-09
   Grad. Scal. Fac. for Micro threshold ....   0.100
   Minimum threshold for Micro iter.    ....   0.010
   NR start threshold (gradient norm)   ....   0.001
   Initial trust radius                 ....   0.400
   Minimum AH scaling param. (alpha)    ....   1.000
   Maximum AH scaling param. (alpha)    .... 1000.000
   Orbital update algorithm             .... Taylor
   White noise on init. David. guess    .... on
   Maximum white noise                  ....   0.010
   Quad. conv. algorithm                .... NR
 SOSCF                  CNVSOSCF        .... on
   Start iteration      SOSCFMaxIt      ....   150
   Startup grad/error   SOSCFStart      ....  0.003300
 Level Shifting         CNVShift        .... on
   Level shift para.    LevelShift      ....    0.2500
   Turn off err/grad.   ShiftErr        ....    0.0010
 Zerner damping         CNVZerner       .... off
 Static damping         CNVDamp         .... on
   Fraction old density DampFac         ....    0.7000
   Max. Damping (<1)    DampMax         ....    0.9800
   Min. Damping (>=0)   DampMin         ....    0.0000
   Turn off err/grad.   DampErr         ....    0.1000
 Fernandez-Rico         CNVRico         .... off

SCF Procedure:
 Maximum # iterations   MaxIter         ....   125
 SCF integral mode      SCFMode         .... Direct
   Integral package                     .... SHARK and LIBINT hybrid scheme
 Reset frequency        DirectResetFreq ....    20
 Integral Threshold     Thresh          ....  1.000e-12 Eh
 Primitive CutOff       TCut            ....  1.000e-14 Eh

Convergence Tolerance:
 Convergence Check Mode ConvCheckMode   .... Total+1el-Energy
 Convergence forced     ConvForced      .... 0
 Energy Change          TolE            ....  1.000e-09 Eh
 1-El. energy change                    ....  1.000e-06 Eh
 Orbital Gradient       TolG            ....  2.000e-06
 Orbital Rotation angle TolX            ....  2.000e-06
 DIIS Error             TolErr          ....  1.000e-08


Diagonalization of the overlap matrix:
Smallest eigenvalue                        ... 3.125e-05
Time for diagonalization                   ...    0.002 sec
Threshold for overlap eigenvalues          ... 1.000e-08
Number of eigenvalues below threshold      ... 0
Time for construction of square roots      ...    0.002 sec
Producing symmetrization matrix            ... done (   0.000 sec)
Total time needed                          ...    0.004 sec

Time for model grid setup =    0.007 sec

------------------------------
INITIAL GUESS: MODEL POTENTIAL
------------------------------
Loading Hartree-Fock densities                     ... done
Calculating cut-offs                               ... done
Initializing the effective Hamiltonian             ... done
Setting up the integral package (SHARK)            ... done
Starting the Coulomb interaction                   ... done (   0.0 sec)
Reading the grid                                   ... done
Mapping shells                                     ... done
Starting the XC term evaluation                    ... done (   0.0 sec)
done (   0.0 sec)
Diagonalizing the Hamiltonian                      ... done (   0.0 sec)
Back transforming the eigenvectors                 ... done (   0.0 sec)
Now organizing SCF variables                       ... done
The symmetry of the initial guess is 1-A1
Irrep occupations for operator 0
    A1 -    3
    A2 -    0
    B1 -    0
    B2 -    0
                      ------------------
                      INITIAL GUESS DONE (   0.0 sec)
                      ------------------
--------------
SCF ITERATIONS
--------------
ITER       Energy         Delta-E        Max-DP      RMS-DP      [F,P]     Damp
               ***  Starting incremental Fock matrix formation  ***
  0    -24.9575624546   0.000000000000 0.07201709  0.00106779  0.1383169 0.7000
  1    -24.9632687726  -0.005706318008 0.05398877  0.00084645  0.1042354 0.7000
                               ***Turning on DIIS***
  2    -24.9675691897  -0.004300417045 0.13097893  0.00209351  0.0754042 0.0000
  3    -24.9839615249  -0.016392335271 0.01415324  0.00025249  0.0074159 0.0000
                      *** Initiating the SOSCF procedure ***
                           *** Shutting down DIIS ***
                      *** Re-Reading the Fockian *** 
                      *** Removing any level shift *** 
ITER      Energy       Delta-E        Grad      Rot      Max-DP    RMS-DP
  4    -24.97872654   0.0052349882  0.001148  0.001148  0.006686  0.000102
               *** Restarting incremental Fock matrix formation ***
  5    -24.97832954   0.0003969958  0.000523  0.001035  0.008125  0.000126
  6    -24.97833431  -0.0000047707  0.000188  0.000575  0.005398  0.000077
  7    -24.97833501  -0.0000006946  0.000009  0.000020  0.000234  0.000003
  8    -24.97833501  -0.0000000025  0.000004  0.000011  0.000056  0.000001
                 **** Energy Check signals convergence ****
              ***Rediagonalizing the Fockian in SOSCF/NRSCF***

               *****************************************************
               *                     SUCCESS                       *
               *           SCF CONVERGED AFTER   9 CYCLES          *
               *****************************************************


----------------
TOTAL SCF ENERGY
----------------

Total Energy       :          -24.97833501 Eh            -679.69505 eV

Components:
Nuclear Repulsion  :            3.30735755 Eh              89.99777 eV
Electronic Energy  :          -28.28569256 Eh            -769.69283 eV
One Electron Energy:          -39.04484126 Eh           -1062.46415 eV
Two Electron Energy:           10.75914869 Eh             292.77132 eV

Virial components:
Potential Energy   :          -50.81083012 Eh           -1382.63298 eV
Kinetic Energy     :           25.83249511 Eh             702.93793 eV
Virial Ratio       :            1.96693467


---------------
SCF CONVERGENCE
---------------

  Last Energy change         ...   -2.8312e-10  Tolerance :   1.0000e-09
  Last MAX-Density change    ...    7.1406e-06  Tolerance :   1.0000e-08
  Last RMS-Density change    ...    9.6636e-08  Tolerance :   1.0000e-09
  Last Orbital Gradient      ...    4.9253e-07  Tolerance :   2.0000e-06
  Last Orbital Rotation      ...    1.2689e-06  Tolerance :   2.0000e-06

             **** THE GBW FILE WAS UPDATED (/scratch/BH-0.8-O_492/BH-0.8-O.gbw) ****
             **** DENSITY /scratch/BH-0.8-O_492/BH-0.8-O.scfp WAS UPDATED ****
             **** ENERGY FILE WAS UPDATED (/scratch/BH-0.8-O_492/BH-0.8-O.en.tmp) ****
             **** THE GBW FILE WAS UPDATED (/scratch/BH-0.8-O_492/BH-0.8-O.gbw) ****
             **** DENSITY /scratch/BH-0.8-O_492/BH-0.8-O.scfp WAS UPDATED ****
----------------
ORBITAL ENERGIES
----------------

  NO   OCC          E(Eh)            E(eV)    Irrep 
   0   2.0000      -7.643971      -208.0030    1-A1
   1   2.0000      -0.779757       -21.2183    2-A1
   2   2.0000      -0.339544        -9.2395    3-A1
   3   0.0000       0.024799         0.6748    1-B2
   4   0.0000       0.024799         0.6748    1-B1
   5   0.0000       0.026931         0.7328    4-A1
   6   0.0000       0.043996         1.1972    5-A1
   7   0.0000       0.078826         2.1450    2-B2
   8   0.0000       0.078826         2.1450    2-B1
   9   0.0000       0.122319         3.3285    6-A1
  10   0.0000       0.131384         3.5751    3-B2
  11   0.0000       0.131384         3.5751    3-B1
  12   0.0000       0.140469         3.8224    7-A1
  13   0.0000       0.145123         3.9490    1-A2
  14   0.0000       0.145123         3.9490    8-A1
  15   0.0000       0.173380         4.7179    9-A1
  16   0.0000       0.267075         7.2675    4-B2
  17   0.0000       0.267075         7.2675    4-B1
  18   0.0000       0.293036         7.9739   10-A1
  19   0.0000       0.337256         9.1772    5-B2
  20   0.0000       0.337256         9.1772    5-B1
  21   0.0000       0.413193        11.2436   11-A1
  22   0.0000       0.424953        11.5636    2-A2
  23   0.0000       0.424953        11.5636   12-A1
  24   0.0000       0.437263        11.8985   13-A1
  25   0.0000       0.462058        12.5732    6-B2
  26   0.0000       0.462058        12.5732    6-B1
  27   0.0000       0.475137        12.9291    7-B2
  28   0.0000       0.475137        12.9291    7-B1
  29   0.0000       0.497238        13.5305   14-A1
  30   0.0000       0.504541        13.7293   15-A1
  31   0.0000       0.504541        13.7293    3-A2
  32   0.0000       0.605469        16.4757   16-A1
  33   0.0000       0.606615        16.5068    8-B2
  34   0.0000       0.606615        16.5068    8-B1
  35   0.0000       0.780793        21.2465    9-B2
  36   0.0000       0.780793        21.2465    9-B1
  37   0.0000       0.787606        21.4319   17-A1
  38   0.0000       0.832310        22.6483    4-A2
  39   0.0000       0.832310        22.6483   18-A1
  40   0.0000       0.986855        26.8537   19-A1
  41   0.0000       1.029251        28.0073   10-B2
  42   0.0000       1.029251        28.0073   10-B1
  43   0.0000       1.085677        29.5428   20-A1
  44   0.0000       1.249545        34.0018   11-B2
  45   0.0000       1.249545        34.0018   11-B1
  46   0.0000       1.369476        37.2653   12-B1
  47   0.0000       1.369476        37.2653   12-B2
  48   0.0000       1.370898        37.3040    5-A2
  49   0.0000       1.370898        37.3040   21-A1
  50   0.0000       1.375730        37.4355   22-A1
  51   0.0000       1.404494        38.2182    6-A2
  52   0.0000       1.404494        38.2182   23-A1
  53   0.0000       1.430347        38.9217    7-A2
  54   0.0000       1.430347        38.9217   24-A1
  55   0.0000       1.444764        39.3140   13-B1
  56   0.0000       1.444764        39.3140   13-B2
  57   0.0000       1.458030        39.6750   14-B2
  58   0.0000       1.458030        39.6750   14-B1
  59   0.0000       1.468202        39.9518   25-A1
  60   0.0000       1.668233        45.3949   15-B2
  61   0.0000       1.668233        45.3949   15-B1
  62   0.0000       1.672795        45.5191   26-A1
  63   0.0000       1.763739        47.9938    8-A2
  64   0.0000       1.763739        47.9938   27-A1
  65   0.0000       1.913943        52.0810   28-A1
  66   0.0000       1.931750        52.5656   16-B2
  67   0.0000       1.931750        52.5656   16-B1
  68   0.0000       1.987142        54.0729   29-A1
  69   0.0000       2.039131        55.4876    9-A2
  70   0.0000       2.039131        55.4876   30-A1
  71   0.0000       2.062819        56.1322   17-B1
  72   0.0000       2.062819        56.1322   17-B2
  73   0.0000       2.190429        59.6046   18-B2
  74   0.0000       2.190429        59.6046   18-B1
  75   0.0000       2.190775        59.6140   31-A1
  76   0.0000       3.097216        84.2795   32-A1
  77   0.0000       3.263808        88.8127   19-B2
  78   0.0000       3.263808        88.8127   19-B1
  79   0.0000       3.358995        91.4029   20-B2
  80   0.0000       3.358995        91.4029   20-B1
  81   0.0000       3.421126        93.0936   33-A1
  82   0.0000       3.478361        94.6510   10-A2
  83   0.0000       3.478361        94.6510   34-A1
  84   0.0000       3.828324       104.1740   35-A1
  85   0.0000       3.925045       106.8059   36-A1
  86   0.0000       3.925045       106.8059   11-A2
  87   0.0000       3.931988       106.9948   12-A2
  88   0.0000       3.931988       106.9948   37-A1
  89   0.0000       3.950254       107.4919   21-B2
  90   0.0000       3.950254       107.4919   21-B1
  91   0.0000       4.055222       110.3482   22-B2
  92   0.0000       4.055222       110.3482   22-B1
  93   0.0000       4.089542       111.2821   38-A1
  94   0.0000       4.095917       111.4556   13-A2
  95   0.0000       4.095917       111.4556   39-A1
  96   0.0000       4.101291       111.6018   23-B1
  97   0.0000       4.101291       111.6018   23-B2
  98   0.0000       4.342670       118.1700   24-B2
  99   0.0000       4.342670       118.1700   24-B1
 100   0.0000       4.712560       128.2353   40-A1
 101   0.0000       4.857614       132.1824   25-B2
 102   0.0000       4.857614       132.1824   25-B1
 103   0.0000       4.990186       135.7899   14-A2
 104   0.0000       4.990186       135.7899   41-A1
 105   0.0000       5.692081       154.8894   42-A1
 106   0.0000       6.156604       167.5297   26-B2
 107   0.0000       6.156604       167.5297   26-B1
 108   0.0000       6.397095       174.0738   43-A1
 109   0.0000       7.111824       193.5226   27-B1
 110   0.0000       7.111824       193.5226   27-B2
 111   0.0000       7.947825       216.2713   44-A1
 112   0.0000       8.054627       219.1775   28-B2
 113   0.0000       8.054627       219.1775   28-B1
 114   0.0000       8.304007       225.9635   15-A2
 115   0.0000       8.304007       225.9635   45-A1
 116   0.0000       8.950872       243.5656   46-A1
 117   0.0000       9.189618       250.0622   16-A2
 118   0.0000       9.189618       250.0622   47-A1
 119   0.0000       9.335414       254.0295   29-B2
 120   0.0000       9.335414       254.0295   29-B1
 121   0.0000      10.587062       288.0886   48-A1
 122   0.0000      10.932454       297.4872   30-B2
 123   0.0000      10.932454       297.4872   30-B1
 124   0.0000      12.404166       337.5345   49-A1
 125   0.0000      19.578634       532.7617   50-A1

                    ********************************
                    * MULLIKEN POPULATION ANALYSIS *
                    ********************************

-----------------------
MULLIKEN ATOMIC CHARGES
-----------------------
   0 B :   -0.112482
   1 H :    0.112482
Sum of atomic charges:   -0.0000000

--------------------------------
MULLIKEN REDUCED ORBITAL CHARGES
--------------------------------
  0 B s       :     3.883019  s :     3.883019
      pz      :     1.187745  p :     1.187745
      px      :     0.000000
      py      :     0.000000
      dz2     :     0.039066  d :     0.039066
      dxz     :    -0.000000
      dyz     :     0.000000
      dx2y2   :     0.000000
      dxy     :    -0.000000
      f0      :     0.002373  f :     0.002373
      f+1     :     0.000000
      f-1     :     0.000000
      f+2     :     0.000000
      f-2     :     0.000000
      f+3     :     0.000000
      f-3     :     0.000000
      g0      :     0.000279  g :     0.000279
      g+1     :     0.000000
      g-1     :    -0.000000
      g+2     :     0.000000
      g-2     :     0.000000
      g+3     :     0.000000
      g-3     :     0.000000
      g+4     :     0.000000
      g-4     :     0.000000
  1 H s       :     0.921212  s :     0.921212
      pz      :    -0.027606  p :    -0.027606
      px      :    -0.000000
      py      :    -0.000000
      dz2     :    -0.005755  d :    -0.005755
      dxz     :    -0.000000
      dyz     :     0.000000
      dx2y2   :     0.000000
      dxy     :     0.000000
      f0      :    -0.000333  f :    -0.000333
      f+1     :    -0.000000
      f-1     :     0.000000
      f+2     :     0.000000
      f-2     :     0.000000
      f+3     :     0.000000
      f-3     :     0.000000


                     *******************************
                     * LOEWDIN POPULATION ANALYSIS *
                     *******************************

----------------------
LOEWDIN ATOMIC CHARGES
----------------------
   0 B :    0.752224
   1 H :   -0.752224

-------------------------------
LOEWDIN REDUCED ORBITAL CHARGES
-------------------------------
  0 B s       :     2.995035  s :     2.995035
      pz      :     1.191035  p :     1.191035
      px      :     0.000000
      py      :     0.000000
      dz2     :     0.052299  d :     0.052299
      dxz     :     0.000000
      dyz     :     0.000000
      dx2y2   :     0.000000
      dxy     :     0.000000
      f0      :     0.007748  f :     0.007748
      f+1     :     0.000000
      f-1     :     0.000000
      f+2     :     0.000000
      f-2     :     0.000000
      f+3     :     0.000000
      f-3     :     0.000000
      g0      :     0.001660  g :     0.001660
      g+1     :     0.000000
      g-1     :     0.000000
      g+2     :     0.000000
      g-2     :     0.000000
      g+3     :     0.000000
      g-3     :     0.000000
      g+4     :     0.000000
      g-4     :     0.000000
  1 H s       :     1.186532  s :     1.186532
      pz      :     0.375870  p :     0.375870
      px      :     0.000000
      py      :     0.000000
      dz2     :     0.126335  d :     0.126335
      dxz     :     0.000000
      dyz     :     0.000000
      dx2y2   :     0.000000
      dxy     :     0.000000
      f0      :     0.063486  f :     0.063486
      f+1     :     0.000000
      f-1     :     0.000000
      f+2     :     0.000000
      f-2     :     0.000000
      f+3     :     0.000000
      f-3     :     0.000000


                      *****************************
                      * MAYER POPULATION ANALYSIS *
                      *****************************

  NA   - Mulliken gross atomic population
  ZA   - Total nuclear charge
  QA   - Mulliken gross atomic charge
  VA   - Mayer's total valence
  BVA  - Mayer's bonded valence
  FA   - Mayer's free valence

  ATOM       NA         ZA         QA         VA         BVA        FA
  0 B      5.1125     5.0000    -0.1125     0.6965     0.6965    -0.0000
  1 H      0.8875     1.0000     0.1125     0.6965     0.6965    -0.0000

  Mayer bond orders larger than 0.100000
B(  0-B ,  1-H ) :   0.6965 

-------
TIMINGS
-------

Total SCF time: 0 days 0 hours 0 min 2 sec 

Total time                  ....       2.066 sec
Sum of individual times     ....       1.912 sec  ( 92.5%)

Fock matrix formation       ....       1.856 sec  ( 89.8%)
Diagonalization             ....       0.017 sec  (  0.8%)
Density matrix formation    ....       0.001 sec  (  0.0%)
Population analysis         ....       0.004 sec  (  0.2%)
Initial guess               ....       0.006 sec  (  0.3%)
Orbital Transformation      ....       0.000 sec  (  0.0%)
Orbital Orthonormalization  ....       0.000 sec  (  0.0%)
DIIS solution               ....       0.010 sec  (  0.5%)
SOSCF solution              ....       0.011 sec  (  0.5%)

Maximum memory used throughout the entire SCF-calculation: 228.6 MB
[cnode12:122857] 7 more processes have sent help message help-mpi-btl-openib.txt / error in device init
[cnode12:122857] Set MCA parameter "orte_base_help_aggregate" to 0 to see all help / error messages

-------------------------   --------------------
FINAL SINGLE POINT ENERGY       -24.978335009011
-------------------------   --------------------


                            ***************************************
                            *     ORCA property calculations      *
                            ***************************************

                                    ---------------------
                                    Active property flags
                                    ---------------------
   (+) Dipole Moment


------------------------------------------------------------------------------
                       ORCA ELECTRIC PROPERTIES CALCULATION
------------------------------------------------------------------------------

Dipole Moment Calculation                       ... on
Quadrupole Moment Calculation                   ... off
Polarizability Calculation                      ... off
GBWName                                         ... /scratch/BH-0.8-O_492/BH-0.8-O.gbw
Electron density file                           ... /scratch/BH-0.8-O_492/BH-0.8-O.scfp
The origin for moment calculation is the CENTER OF MASS  = ( 0.000000,  0.000000 -0.000000)

-------------
DIPOLE MOMENT
-------------
                                X             Y             Z
Electronic contribution:      0.00000       0.00000       0.29994
Nuclear contribution   :      0.00000       0.00000       0.73811
                        -----------------------------------------
Total Dipole Moment    :      0.00000       0.00000       1.03805
                        -----------------------------------------
Magnitude (a.u.)       :      1.03805
Magnitude (Debye)      :      2.63852



--------------------
Rotational spectrum 
--------------------
 
Rotational constants in cm-1:     0.000000    28.567661    28.567661 
Rotational constants in MHz :     0.000000 856436.936940 856436.936940 

 Dipole components along the rotational axes: 
x,y,z [a.u.] :     1.038052     0.000000     0.000000 
x,y,z [Debye]:     2.638520     0.000000     0.000000 

 
--------------------------------------------------------------------------
WARNING: There was an error initializing an OpenFabrics device.

  Local host:   cnode12
  Local device: mlx5_0
--------------------------------------------------------------------------
[cnode12:122917] 7 more processes have sent help message help-mpi-btl-openib.txt / error in device init
[cnode12:122917] Set MCA parameter "orte_base_help_aggregate" to 0 to see all help / error messages

Timings for individual modules:

Sum of individual times         ...        2.935 sec (=   0.049 min)
GTO integral calculation        ...        0.501 sec (=   0.008 min)  17.1 %
SCF iterations                  ...        2.433 sec (=   0.041 min)  82.9 %
                             ****ORCA TERMINATED NORMALLY****
TOTAL RUN TIME: 0 days 0 hours 0 minutes 3 seconds 364 msec

Sender: Unischeduler System <lcz@mgt01>
Subject: Job 133485: <#!/bin/bash
#BSUB -J intel
#BSUB -o BH-0.8-O.out
#BSUB -n 8
#BSUB -q cqueue
export LD_LIBRARY_PATH=/apps/software/openmpi-4.1.1/lib:/apps/software/orca_5_0_0:$LD_LIBRARY_PATH
export PATH=/apps/software/openmpi-4.1.1/bin:/apps/software/orca_5_0_0:$PATH
mkdir /scratch/BH-0.8-O_492
scp $USER@mgt01:/apps/users/lcz/exe13/RHF/BH-0.8-O.inp /scratch/BH-0.8-O_492
/apps/software/orca_5_0_0/orca /scratch/BH-0.8-O_492/BH-0.8-O.inp >& BH-0.8-O.out
scp /scratch/BH-0.8-O_492/*.gbw $USER@mgt01:/apps/users/lcz/exe13/RHF
scp /scratch/BH-0.8-O_492/*.xyz $USER@mgt01:/apps/users/lcz/exe13/RHF
scp /scratch/BH-0.8-O_492/*.trj $USER@mgt01:/apps/users/lcz/exe13/RHF> Exited

Job <#!/bin/bash
#BSUB -J intel
#BSUB -o BH-0.8-O.out
#BSUB -n 8
#BSUB -q cqueue
export LD_LIBRARY_PATH=/apps/software/openmpi-4.1.1/lib:/apps/software/orca_5_0_0:$LD_LIBRARY_PATH
export PATH=/apps/software/openmpi-4.1.1/bin:/apps/software/orca_5_0_0:$PATH
mkdir /scratch/BH-0.8-O_492
scp $USER@mgt01:/apps/users/lcz/exe13/RHF/BH-0.8-O.inp /scratch/BH-0.8-O_492
/apps/software/orca_5_0_0/orca /scratch/BH-0.8-O_492/BH-0.8-O.inp >& BH-0.8-O.out
scp /scratch/BH-0.8-O_492/*.gbw $USER@mgt01:/apps/users/lcz/exe13/RHF
scp /scratch/BH-0.8-O_492/*.xyz $USER@mgt01:/apps/users/lcz/exe13/RHF
scp /scratch/BH-0.8-O_492/*.trj $USER@mgt01:/apps/users/lcz/exe13/RHF> was submitted from host <mgt01> by user <lcz>.
Job was executed on host(s) <8*cnode12>, in queue <cqueue>, as user <lcz>.
</apps/users/lcz> was used as the home directory.
</apps/users/lcz/exe13/RHF> was used as the working directory.
Started at 2022-05-21 17:24:41
Results reported at 2022-05-21 17:24:46

Your job looked like:

------------------------------------------------------------
# User input
#!/bin/bash
#BSUB -J intel
#BSUB -o BH-0.8-O.out
#BSUB -n 8
#BSUB -q cqueue
export LD_LIBRARY_PATH=/apps/software/openmpi-4.1.1/lib:/apps/software/orca_5_0_0:$LD_LIBRARY_PATH
export PATH=/apps/software/openmpi-4.1.1/bin:/apps/software/orca_5_0_0:$PATH
mkdir /scratch/BH-0.8-O_492
scp $USER@mgt01:/apps/users/lcz/exe13/RHF/BH-0.8-O.inp /scratch/BH-0.8-O_492
/apps/software/orca_5_0_0/orca /scratch/BH-0.8-O_492/BH-0.8-O.inp >& BH-0.8-O.out
scp /scratch/BH-0.8-O_492/*.gbw $USER@mgt01:/apps/users/lcz/exe13/RHF
scp /scratch/BH-0.8-O_492/*.xyz $USER@mgt01:/apps/users/lcz/exe13/RHF
scp /scratch/BH-0.8-O_492/*.trj $USER@mgt01:/apps/users/lcz/exe13/RHF
------------------------------------------------------------

Exited with exit code 1.

Resource usage summary:

    CPU time   :            0.01 sec.
    Max Memory :                 8 MB
    Max Processes  :               2


The output (if any) follows:

/scratch/BH-0.8-O_492/*.xyz: No such file or directory
/scratch/BH-0.8-O_492/*.trj: No such file or directory
