
                                        *****************
                                        * O   R   C   A *
                                        *****************

                                            #,                                       
                                            ###                                      
                                            ####                                     
                                            #####                                    
                                            ######                                   
                                           ########,                                 
                                     ,,################,,,,,                         
                               ,,#################################,,                 
                          ,,##########################################,,             
                       ,#########################################, ''#####,          
                    ,#############################################,,   '####,        
                  ,##################################################,,,,####,       
                ,###########''''           ''''###############################       
              ,#####''   ,,,,##########,,,,          '''####'''          '####       
            ,##' ,,,,###########################,,,                        '##       
           ' ,,###''''                  '''############,,,                           
         ,,##''                                '''############,,,,        ,,,,,,###''
      ,#''                                            '''#######################'''  
     '                                                          ''''####''''         
             ,#######,   #######,   ,#######,      ##                                
            ,#'     '#,  ##    ##  ,#'     '#,    #''#        ######   ,####,        
            ##       ##  ##   ,#'  ##            #'  '#       #        #'  '#        
            ##       ##  #######   ##           ,######,      #####,   #    #        
            '#,     ,#'  ##    ##  '#,     ,#' ,#      #,         ##   #,  ,#        
             '#######'   ##     ##  '#######'  #'      '#     #####' # '####'        



                  #######################################################
                  #                        -***-                        #
                  #          Department of theory and spectroscopy      #
                  #    Directorship and core code : Frank Neese         #
                  #        Max Planck Institute fuer Kohlenforschung    #
                  #                Kaiser Wilhelm Platz 1               #
                  #                 D-45470 Muelheim/Ruhr               #
                  #                      Germany                        #
                  #                                                     #
                  #                  All rights reserved                #
                  #                        -***-                        #
                  #######################################################


                         Program Version 5.0.0 -  RELEASE  -
                                (SVN: $Rev: 19529$)
                ($Date: 2021-06-28 11:36:33 +0200 (Mo, 28 Jun 2021) $)


 With contributions from (in alphabetic order):
   Daniel Aravena         : Magnetic Suceptibility
   Michael Atanasov       : Ab Initio Ligand Field Theory (pilot matlab implementation)
   Alexander A. Auer      : GIAO ZORA, VPT2 properties, NMR spectrum
   Ute Becker             : Parallelization
   Giovanni Bistoni       : ED, misc. LED, open-shell LED, HFLD
   Martin Brehm           : Molecular dynamics
   Dmytro Bykov           : SCF Hessian
   Vijay G. Chilkuri      : MRCI spin determinant printing, contributions to CSF-ICE
   Dipayan Datta          : RHF DLPNO-CCSD density
   Achintya Kumar Dutta   : EOM-CC, STEOM-CC
   Dmitry Ganyushin       : Spin-Orbit,Spin-Spin,Magnetic field MRCI
   Miquel Garcia          : C-PCM Hessian, Gaussian charge scheme
   Yang Guo               : DLPNO-NEVPT2, F12-NEVPT2, CIM, IAO-localization
   Andreas Hansen         : Spin unrestricted coupled pair/coupled cluster methods
   Benjamin Helmich-Paris : MC-RPA, TRAH-SCF, COSX integrals
   Lee Huntington         : MR-EOM, pCC
   Robert Izsak           : Overlap fitted RIJCOSX, COSX-SCS-MP3, EOM
   Marcus Kettner         : VPT2
   Christian Kollmar      : KDIIS, OOCD, Brueckner-CCSD(T), CCSD density, CASPT2, CASPT2-K
   Simone Kossmann        : Meta GGA functionals, TD-DFT gradient, OOMP2, MP2 Hessian
   Martin Krupicka        : Initial AUTO-CI
   Lucas Lang             : DCDCAS
   Marvin Lechner         : AUTO-CI (C++ implementation), FIC-MRCC
   Dagmar Lenk            : GEPOL surface, SMD
   Dimitrios Liakos       : Extrapolation schemes; Compound Job, initial MDCI parallelization
   Dimitrios Manganas     : Further ROCIS development; embedding schemes
   Dimitrios Pantazis     : SARC Basis sets
   Anastasios Papadopoulos: AUTO-CI, single reference methods and gradients
   Taras Petrenko         : DFT Hessian,TD-DFT gradient, ASA, ECA, R-Raman, ABS, FL, XAS/XES, NRVS
   Peter Pinski           : DLPNO-MP2, DLPNO-MP2 Gradient
   Christoph Reimann      : Effective Core Potentials
   Marius Retegan         : Local ZFS, SOC
   Christoph Riplinger    : Optimizer, TS searches, QM/MM, DLPNO-CCSD(T), (RO)-DLPNO pert. Triples
   Tobias Risthaus        : Range-separated hybrids, TD-DFT gradient, RPA, STAB
   Michael Roemelt        : Original ROCIS implementation
   Masaaki Saitow         : Open-shell DLPNO-CCSD energy and density
   Barbara Sandhoefer     : DKH picture change effects
   Avijit Sen             : IP-ROCIS
   Kantharuban Sivalingam : CASSCF convergence, NEVPT2, FIC-MRCI
   Bernardo de Souza      : ESD, SOC TD-DFT
   Georgi Stoychev        : AutoAux, RI-MP2 NMR
   Willem Van den Heuvel  : Paramagnetic NMR
   Boris Wezisla          : Elementary symmetry handling
   Frank Wennmohs         : Technical directorship


 We gratefully acknowledge several colleagues who have allowed us to
 interface, adapt or use parts of their codes:
   Stefan Grimme, W. Hujo, H. Kruse, P. Pracht,  : VdW corrections, initial TS optimization,
                  C. Bannwarth, S. Ehlert          DFT functionals, gCP, sTDA/sTD-DF
   Ed Valeev, F. Pavosevic, A. Kumar             : LibInt (2-el integral package), F12 methods
   Garnet Chan, S. Sharma, J. Yang, R. Olivares  : DMRG
   Ulf Ekstrom                                   : XCFun DFT Library
   Mihaly Kallay                                 : mrcc  (arbitrary order and MRCC methods)
   Jiri Pittner, Ondrej Demel                    : Mk-CCSD
   Frank Weinhold                                : gennbo (NPA and NBO analysis)
   Christopher J. Cramer and Donald G. Truhlar   : smd solvation model
   Lars Goerigk                                  : TD-DFT with DH, B97 family of functionals
   V. Asgeirsson, H. Jonsson                     : NEB implementation
   FAccTs GmbH                                   : IRC, NEB, NEB-TS, DLPNO-Multilevel, CI-OPT
                                                   MM, QMMM, 2- and 3-layer-ONIOM, Crystal-QMMM,
                                                   LR-CPCM, SF, NACMEs, symmetry and pop. for TD-DFT,
                                                   nearIR, NL-DFT gradient (VV10), updates on ESD,
                                                   ML-optimized integration grids
   S Lehtola, MJT Oliveira, MAL Marques          : LibXC Library
   Liviu Ungur et al                             : ANISO software


 Your calculation uses the libint2 library for the computation of 2-el integrals
 For citations please refer to: http://libint.valeyev.net

 Your ORCA version has been built with support for libXC version: 5.1.0
 For citations please refer to: https://tddft.org/programs/libxc/

 This ORCA versions uses:
   CBLAS   interface :  Fast vector & matrix operations
   LAPACKE interface :  Fast linear algebra routines
   SCALAPACK package :  Parallel linear algebra routines
   Shared memory     :  Shared parallel matrices
   BLAS/LAPACK       :  OpenBLAS 0.3.15  USE64BITINT DYNAMIC_ARCH NO_AFFINITY SkylakeX SINGLE_THREADED
        Core in use  :  SkylakeX
   Copyright (c) 2011-2014, The OpenBLAS Project


================================================================================

----- Orbital basis set information -----
Your calculation utilizes the basis: aug-cc-pVQZ 
    H, B-Ne : Obtained from the ccRepo (grant-hill.group.shef.ac.uk/ccrepo) Feb. 2017
              R. A. Kendall, T. H. Dunning, Jr., R. J. Harrison, J. Chem. Phys. 96, 6796 (1992)
         He : Obtained from the ccRepo (grant-hill.group.shef.ac.uk/ccrepo) Feb. 2017
              D. E. Woon, T. H. Dunning, Jr., J. Chem. Phys. 100, 2975 (1994)
  Li-Be, Na : Obtained from the ccRepo (grant-hill.group.shef.ac.uk/ccrepo) Feb. 2017
              B. P. Prascher, D. E. Woon, K. A. Peterson, T. H. Dunning, Jr., A. K. Wilson, Theor. Chem. Acc. 128, 69 (2011)
         Mg : Obtained from the Peterson Research Group Website (tyr0.chem.wsu.edu/~kipeters) Feb. 2017
              B. P. Prascher, D. E. Woon, K. A. Peterson, T. H. Dunning, Jr., A. K. Wilson, Theor. Chem. Acc. 128, 69 (2011)
      Al-Ar : Obtained from the ccRepo (grant-hill.group.shef.ac.uk/ccrepo) Feb. 2017
              D. E. Woon, T. H. Dunning, Jr., J. Chem. Phys. 98, 1358 (1993)
      Sc-Zn : Obtained from the ccRepo (grant-hill.group.shef.ac.uk/ccrepo) Feb. 2017
              N. B. Balabanov, K. A. Peterson, J. Chem. Phys. 123, 064107 (2005)
              N. B. Balabanov, K. A. Peterson, J. Chem. Phys. 125, 074110 (2006)
      Ga-Kr : Obtained from the ccRepo (grant-hill.group.shef.ac.uk/ccrepo) Feb. 2017
              A. K. Wilson, D. E. Woon, K. A. Peterson, T. H. Dunning, Jr., J. Chem. Phys. 110, 7667 (1999)

================================================================================
                                        WARNINGS
                       Please study these warnings very carefully!
================================================================================


INFO   : the flag for use of the SHARK integral package has been found!

================================================================================
                                       INPUT FILE
================================================================================
NAME = /scratch/BH-1.6-O_509/BH-1.6-O.inp
|  1> ! RHF aug-cc-pVQZ pal8 VeryTightSCF UseSym
|  2> 
|  3> *xyz 0 1
|  4>  B	0.0	0.0	0.0
|  5>  H	1.6	0.0	0.0
|  6> **                         ****END OF INPUT****
================================================================================

------------------------------------------------------------------------------
                            SYMMETRY HANDLING SETUP
------------------------------------------------------------------------------

------------------
SYMMETRY DETECTION
------------------
The point group will now be determined using a tolerance of 1.0000e-04.
Splitting atom subsets according to nuclear charge, mass and basis set.
Splitting atom subsets according to distance from the molecule's center.
Identifying relative distance patterns of the atoms.
Splitting atom subsets according to atoms' relative distance patterns.
Bring atoms of each subset into input order.
The molecule is linear.
There is at least one atom subset not centered around the molecule's center.
The molecule does not have a center of inversion.
No further test is needed for point group Cinfv.
This point group has been found:    Cinfv
Largest non-degenerate subgroup:    C2v


Mass-centered symmetry-perfected Cartesians (point groups Cinfv and C2v):

Atom          Symmetry-perfected Cartesians (x, y, z; au)
  0       0.000000000000    0.000000000000   -0.257890532136
  1       0.000000000000    0.000000000000    2.765671282138


-----------------------------------------------
SYMMETRY-PERFECTED CARTESIAN COORDINATES (A.U.)
-----------------------------------------------
Warning (ORCA_SYM): Coordinates were not cleaned so far!

------------------
SYMMETRY REDUCTION
------------------
ORCA supports only abelian point groups.
It is now checked, if the determined point group is supported:
Point Group ( C2v   ) is          ... supported

(Re)building abelian point group:
Creating Character Table          ... done
Making direct product table       ... done
Constructing symmetry operations  ... done
Creating atom transfer table      ... done
Creating asymmetric unit          ... done

----------------------
ASYMMETRIC UNIT IN C2v
----------------------
  #  AT     MASS              COORDS (A.U.)             BAS
   0 B   10.8100   0.00000000   0.00000000  -0.25789053   0
   1 H    1.0080   0.00000000   0.00000000   2.76567128   0

----------------------
SYMMETRY ADAPTED BASIS
----------------------
The coefficients for the symmetry adapted linear combinations (SALCS)
of basis functions will now be computed:
Number of basis functions         ...   126
Preparing memory                  ... done
Constructing Gamma(red)           ... done
Reducing Gamma(red)               ... done
Constructing SALCs                ... done
Checking SALC integrity           ... nothing suspicious
Normalizing SALCs                 ... done

Storing the symmetry object:
Symmetry file                     ... /scratch/BH-1.6-O_509/BH-1.6-O.sym.tmp
Writing symmetry information      ... done

                       ****************************
                       * Single Point Calculation *
                       ****************************

---------------------------------
CARTESIAN COORDINATES (ANGSTROEM)
---------------------------------
  B      0.000000    0.000000   -0.136470
  H      0.000000    0.000000    1.463530

----------------------------
CARTESIAN COORDINATES (A.U.)
----------------------------
  NO LB      ZA    FRAG     MASS         X           Y           Z
   0 B     5.0000    0    10.810    0.000000    0.000000   -0.257891
   1 H     1.0000    0     1.008    0.000000    0.000000    2.765671

--------------------------------
INTERNAL COORDINATES (ANGSTROEM)
--------------------------------
 B      0   0   0     0.000000000000     0.00000000     0.00000000
 H      1   0   0     1.600000000000     0.00000000     0.00000000

---------------------------
INTERNAL COORDINATES (A.U.)
---------------------------
 B      0   0   0     0.000000000000     0.00000000     0.00000000
 H      1   0   0     3.023561814274     0.00000000     0.00000000

---------------------
BASIS SET INFORMATION
---------------------
There are 2 groups of distinct atoms

 Group   1 Type B   : 22s7p4d3f2g contracted to 6s5p4d3f2g pattern {991111/31111/1111/111/11}
 Group   2 Type H   : 7s4p3d2f contracted to 5s4p3d2f pattern {31111/1111/111/11}

Atom   0B    basis set group =>   1
Atom   1H    basis set group =>   2
--------------------------------------------------------------------------
WARNING: There was an error initializing an OpenFabrics device.

  Local host:   cnode16
  Local device: mlx5_0
--------------------------------------------------------------------------


           ************************************************************
           *        Program running with 8 parallel MPI-processes     *
           *              working on a common directory               *
           ************************************************************
------------------------------------------------------------------------------
                           ORCA GTO INTEGRAL CALCULATION
------------------------------------------------------------------------------
------------------------------------------------------------------------------
                   ___                                                        
                  /   \      - P O W E R E D   B Y -                         
                 /     \                                                     
                 |  |  |   _    _      __       _____    __    __             
                 |  |  |  | |  | |    /  \     |  _  \  |  |  /  |          
                  \  \/   | |  | |   /    \    | | | |  |  | /  /          
                 / \  \   | |__| |  /  /\  \   | |_| |  |  |/  /          
                |  |  |   |  __  | /  /__\  \  |    /   |      \           
                |  |  |   | |  | | |   __   |  |    \   |  |\   \          
                \     /   | |  | | |  |  |  |  | |\  \  |  | \   \       
                 \___/    |_|  |_| |__|  |__|  |_| \__\ |__|  \__/        
                                                                              
                      - O R C A' S   B I G   F R I E N D -                    
                                      &                                       
                       - I N T E G R A L  F E E D E R -                       
                                                                              
 v1 FN, 2020, v2 2021                                                         
------------------------------------------------------------------------------


Reading SHARK input file /scratch/BH-1.6-O_509/BH-1.6-O.SHARKINP.tmp ... ok
----------------------
SHARK INTEGRAL PACKAGE
----------------------

Number of atoms                             ...      2
Number of basis functions                   ...    126
Number of shells                            ...     34
Maximum angular momentum                    ...      4
Integral batch strategy                     ... SHARK/LIBINT Hybrid
RI-J (if used) integral strategy            ... SPLIT-RIJ (Revised 2003 algorithm where possible)
Printlevel                                  ...      1
Contraction scheme used                     ... SEGMENTED contraction
Coulomb Range Separation                    ... NOT USED
Exchange Range Separation                   ... NOT USED
Finite Nucleus Model                        ... NOT USED
Auxiliary Coulomb fitting basis             ... NOT available
Auxiliary J/K fitting basis                 ... NOT available
Auxiliary Correlation fitting basis         ... NOT available
Auxiliary 'external' fitting basis          ... NOT available
Integral threshold                          ...     1.000000e-12
Primitive cut-off                           ...     1.000000e-14
Primitive pair pre-selection threshold      ...     1.000000e-14

Calculating pre-screening integrals         ... done (  0.1 sec) Dimension = 34
Organizing shell pair data                  ... done (  0.0 sec)
Shell pair information
Total number of shell pairs                 ...       595
Shell pairs after pre-screening             ...       595
Total number of primitive shell pairs       ...      1563
Primitive shell pairs kept                  ...      1530
          la=0 lb=0:     66 shell pairs
          la=1 lb=0:     99 shell pairs
          la=1 lb=1:     45 shell pairs
          la=2 lb=0:     77 shell pairs
          la=2 lb=1:     63 shell pairs
          la=2 lb=2:     28 shell pairs
          la=3 lb=0:     55 shell pairs
          la=3 lb=1:     45 shell pairs
          la=3 lb=2:     35 shell pairs
          la=3 lb=3:     15 shell pairs
          la=4 lb=0:     22 shell pairs
          la=4 lb=1:     18 shell pairs
          la=4 lb=2:     14 shell pairs
          la=4 lb=3:     10 shell pairs
          la=4 lb=4:      3 shell pairs

Calculating one electron integrals          ... done (  0.0 sec)
Calculating Nuclear repulsion               ... done (  0.0 sec) ENN=      1.653678775938 Eh

SHARK setup successfully completed in   0.1 seconds

Maximum memory used throughout the entire GTOINT-calculation: 28.9 MB
[cnode16:424847] 7 more processes have sent help message help-mpi-btl-openib.txt / error in device init
[cnode16:424847] Set MCA parameter "orte_base_help_aggregate" to 0 to see all help / error messages
--------------------------------------------------------------------------
WARNING: There was an error initializing an OpenFabrics device.

  Local host:   cnode16
  Local device: mlx5_0
--------------------------------------------------------------------------


           ************************************************************
           *        Program running with 8 parallel MPI-processes     *
           *              working on a common directory               *
           ************************************************************
-------------------------------------------------------------------------------
                                 ORCA SCF
-------------------------------------------------------------------------------

------------
SCF SETTINGS
------------
Hamiltonian:
 Ab initio Hamiltonian  Method          .... Hartree-Fock(GTOs)


General Settings:
 Integral files         IntName         .... /scratch/BH-1.6-O_509/BH-1.6-O
 Hartree-Fock type      HFTyp           .... RHF
 Total Charge           Charge          ....    0
 Multiplicity           Mult            ....    1
 Number of Electrons    NEL             ....    6
 Basis Dimension        Dim             ....  126
 Nuclear Repulsion      ENuc            ....      1.6536787759 Eh

 Symmetry handling      UseSym         .... ON
 Point group                           .... C2v
 Used point group                      .... C2v
 Number of irreps                      .... 4
   Irrep   A1 has   50 symmetry adapted basis functions (ofs=   0)
   Irrep   A2 has   16 symmetry adapted basis functions (ofs=  50)
   Irrep   B1 has   30 symmetry adapted basis functions (ofs=  66)
   Irrep   B2 has   30 symmetry adapted basis functions (ofs=  96)

Convergence Acceleration:
 DIIS                   CNVDIIS         .... on
   Start iteration      DIISMaxIt       ....    12
   Startup error        DIISStart       ....  0.200000
   # of expansion vecs  DIISMaxEq       ....     5
   Bias factor          DIISBfac        ....   1.050
   Max. coefficient     DIISMaxC        ....  10.000
 Trust-Rad. Augm. Hess. CNVTRAH         .... auto
   Auto Start mean grad. ratio tolernc. ....  1.125000
   Auto Start start iteration           ....    20
   Auto Start num. interpolation iter.  ....    10
   Max. Number of Micro iterations      ....    16
   Max. Number of Macro iterations      .... Maxiter - #DIIS iter
   Number of Davidson start vectors     ....     2
   Converg. threshold I  (grad. norm)   ....   2.000e-06
   Converg. threshold II (energy diff.) ....   1.000e-09
   Grad. Scal. Fac. for Micro threshold ....   0.100
   Minimum threshold for Micro iter.    ....   0.010
   NR start threshold (gradient norm)   ....   0.001
   Initial trust radius                 ....   0.400
   Minimum AH scaling param. (alpha)    ....   1.000
   Maximum AH scaling param. (alpha)    .... 1000.000
   Orbital update algorithm             .... Taylor
   White noise on init. David. guess    .... on
   Maximum white noise                  ....   0.010
   Quad. conv. algorithm                .... NR
 SOSCF                  CNVSOSCF        .... on
   Start iteration      SOSCFMaxIt      ....   150
   Startup grad/error   SOSCFStart      ....  0.003300
 Level Shifting         CNVShift        .... on
   Level shift para.    LevelShift      ....    0.2500
   Turn off err/grad.   ShiftErr        ....    0.0010
 Zerner damping         CNVZerner       .... off
 Static damping         CNVDamp         .... on
   Fraction old density DampFac         ....    0.7000
   Max. Damping (<1)    DampMax         ....    0.9800
   Min. Damping (>=0)   DampMin         ....    0.0000
   Turn off err/grad.   DampErr         ....    0.1000
 Fernandez-Rico         CNVRico         .... off

SCF Procedure:
 Maximum # iterations   MaxIter         ....   125
 SCF integral mode      SCFMode         .... Direct
   Integral package                     .... SHARK and LIBINT hybrid scheme
 Reset frequency        DirectResetFreq ....    20
 Integral Threshold     Thresh          ....  1.000e-12 Eh
 Primitive CutOff       TCut            ....  1.000e-14 Eh

Convergence Tolerance:
 Convergence Check Mode ConvCheckMode   .... Total+1el-Energy
 Convergence forced     ConvForced      .... 0
 Energy Change          TolE            ....  1.000e-09 Eh
 1-El. energy change                    ....  1.000e-06 Eh
 Orbital Gradient       TolG            ....  2.000e-06
 Orbital Rotation angle TolX            ....  2.000e-06
 DIIS Error             TolErr          ....  1.000e-08


Diagonalization of the overlap matrix:
Smallest eigenvalue                        ... 2.512e-04
Time for diagonalization                   ...    0.002 sec
Threshold for overlap eigenvalues          ... 1.000e-08
Number of eigenvalues below threshold      ... 0
Time for construction of square roots      ...    0.002 sec
Producing symmetrization matrix            ... done (   0.000 sec)
Total time needed                          ...    0.004 sec

Time for model grid setup =    0.007 sec

------------------------------
INITIAL GUESS: MODEL POTENTIAL
------------------------------
Loading Hartree-Fock densities                     ... done
Calculating cut-offs                               ... done
Initializing the effective Hamiltonian             ... done
Setting up the integral package (SHARK)            ... done
Starting the Coulomb interaction                   ... done (   0.0 sec)
Reading the grid                                   ... done
Mapping shells                                     ... done
Starting the XC term evaluation                    ... done (   0.0 sec)
done (   0.0 sec)
Diagonalizing the Hamiltonian                      ... done (   0.0 sec)
Back transforming the eigenvectors                 ... done (   0.0 sec)
Now organizing SCF variables                       ... done
The symmetry of the initial guess is 1-A1
Irrep occupations for operator 0
    A1 -    3
    A2 -    0
    B1 -    0
    B2 -    0
                      ------------------
                      INITIAL GUESS DONE (   0.0 sec)
                      ------------------
--------------
SCF ITERATIONS
--------------
ITER       Energy         Delta-E        Max-DP      RMS-DP      [F,P]     Damp
               ***  Starting incremental Fock matrix formation  ***
  0    -25.0910156734   0.000000000000 0.03899098  0.00051812  0.1066792 0.7000
  1    -25.0933436102  -0.002327936732 0.02790146  0.00038967  0.0774981 0.7000
                               ***Turning on DIIS***
  2    -25.0951175285  -0.001773918373 0.06569843  0.00094788  0.0557992 0.0000
  3    -25.1002368115  -0.005119282910 0.00462226  0.00010961  0.0067995 0.0000
                      *** Initiating the SOSCF procedure ***
                           *** Shutting down DIIS ***
                      *** Re-Reading the Fockian *** 
                      *** Removing any level shift *** 
ITER      Energy       Delta-E        Grad      Rot      Max-DP    RMS-DP
  4    -25.10098173  -0.0007449179  0.001037  0.001037  0.002086  0.000054
               *** Restarting incremental Fock matrix formation ***
  5    -25.09984650   0.0011352253  0.000317  0.000477  0.001242  0.000037
  6    -25.09984825  -0.0000017414  0.000098  0.000208  0.000576  0.000017
  7    -25.09984847  -0.0000002214  0.000008  0.000018  0.000027  0.000001
  8    -25.09984847  -0.0000000016  0.000003  0.000009  0.000017  0.000000
                 **** Energy Check signals convergence ****
              ***Rediagonalizing the Fockian in SOSCF/NRSCF***

               *****************************************************
               *                     SUCCESS                       *
               *           SCF CONVERGED AFTER   9 CYCLES          *
               *****************************************************


----------------
TOTAL SCF ENERGY
----------------

Total Energy       :          -25.09984847 Eh            -683.00160 eV

Components:
Nuclear Repulsion  :            1.65367878 Eh              44.99889 eV
Electronic Energy  :          -26.75352724 Eh            -728.00049 eV
One Electron Energy:          -36.17857212 Eh            -984.46900 eV
Two Electron Energy:            9.42504487 Eh             256.46851 eV

Virial components:
Potential Energy   :          -50.00091996 Eh           -1360.59420 eV
Kinetic Energy     :           24.90107149 Eh             677.59260 eV
Virial Ratio       :            2.00798267


---------------
SCF CONVERGENCE
---------------

  Last Energy change         ...   -2.1807e-10  Tolerance :   1.0000e-09
  Last MAX-Density change    ...    9.9726e-07  Tolerance :   1.0000e-08
  Last RMS-Density change    ...    2.0720e-08  Tolerance :   1.0000e-09
  Last Orbital Gradient      ...    2.8758e-07  Tolerance :   2.0000e-06
  Last Orbital Rotation      ...    5.4702e-07  Tolerance :   2.0000e-06

             **** THE GBW FILE WAS UPDATED (/scratch/BH-1.6-O_509/BH-1.6-O.gbw) ****
             **** DENSITY /scratch/BH-1.6-O_509/BH-1.6-O.scfp WAS UPDATED ****
             **** ENERGY FILE WAS UPDATED (/scratch/BH-1.6-O_509/BH-1.6-O.en.tmp) ****
             **** THE GBW FILE WAS UPDATED (/scratch/BH-1.6-O_509/BH-1.6-O.gbw) ****
             **** DENSITY /scratch/BH-1.6-O_509/BH-1.6-O.scfp WAS UPDATED ****
----------------
ORBITAL ENERGIES
----------------

  NO   OCC          E(Eh)            E(eV)    Irrep 
   0   2.0000      -7.732940      -210.4240    1-A1
   1   2.0000      -0.578761       -15.7489    2-A1
   2   2.0000      -0.352540        -9.5931    3-A1
   3   0.0000       0.020419         0.5556    1-B1
   4   0.0000       0.020419         0.5556    1-B2
   5   0.0000       0.032662         0.8888    4-A1
   6   0.0000       0.047918         1.3039    5-A1
   7   0.0000       0.073640         2.0039    2-B2
   8   0.0000       0.073640         2.0039    2-B1
   9   0.0000       0.101686         2.7670    6-A1
  10   0.0000       0.137964         3.7542    7-A1
  11   0.0000       0.138995         3.7822    3-B2
  12   0.0000       0.138995         3.7822    3-B1
  13   0.0000       0.144267         3.9257    1-A2
  14   0.0000       0.144267         3.9257    8-A1
  15   0.0000       0.204107         5.5540    9-A1
  16   0.0000       0.238223         6.4824   10-A1
  17   0.0000       0.270499         7.3607    4-B2
  18   0.0000       0.270499         7.3607    4-B1
  19   0.0000       0.305242         8.3061    5-B1
  20   0.0000       0.305242         8.3061    5-B2
  21   0.0000       0.344427         9.3723   11-A1
  22   0.0000       0.382303        10.4030   12-A1
  23   0.0000       0.458668        12.4810    6-B2
  24   0.0000       0.458668        12.4810    6-B1
  25   0.0000       0.461845        12.5675    2-A2
  26   0.0000       0.461845        12.5675   13-A1
  27   0.0000       0.484642        13.1878    7-B1
  28   0.0000       0.484642        13.1878    7-B2
  29   0.0000       0.494063        13.4441   14-A1
  30   0.0000       0.494063        13.4441    3-A2
  31   0.0000       0.527460        14.3529   15-A1
  32   0.0000       0.561735        15.2856    8-B2
  33   0.0000       0.561735        15.2856    8-B1
  34   0.0000       0.568798        15.4778   16-A1
  35   0.0000       0.694035        18.8856   17-A1
  36   0.0000       0.787704        21.4345    9-B2
  37   0.0000       0.787704        21.4345    9-B1
  38   0.0000       0.797872        21.7112   18-A1
  39   0.0000       0.797872        21.7112    4-A2
  40   0.0000       0.799476        21.7548   19-A1
  41   0.0000       0.988391        26.8955   10-B1
  42   0.0000       0.988391        26.8955   10-B2
  43   0.0000       1.192479        32.4490   20-A1
  44   0.0000       1.194621        32.5073   11-B2
  45   0.0000       1.194621        32.5073   11-B1
  46   0.0000       1.275348        34.7040   21-A1
  47   0.0000       1.351271        36.7700   12-B1
  48   0.0000       1.351271        36.7700   12-B2
  49   0.0000       1.363338        37.0983   22-A1
  50   0.0000       1.363338        37.0983    5-A2
  51   0.0000       1.380786        37.5731    6-A2
  52   0.0000       1.380786        37.5731   23-A1
  53   0.0000       1.386337        37.7241   13-B2
  54   0.0000       1.386337        37.7241   13-B1
  55   0.0000       1.395756        37.9805   24-A1
  56   0.0000       1.430253        38.9192   14-B2
  57   0.0000       1.430253        38.9192   14-B1
  58   0.0000       1.442141        39.2426    7-A2
  59   0.0000       1.442141        39.2426   25-A1
  60   0.0000       1.510044        41.0904   26-A1
  61   0.0000       1.532695        41.7068   15-B2
  62   0.0000       1.532695        41.7068   15-B1
  63   0.0000       1.564858        42.5820    8-A2
  64   0.0000       1.564858        42.5820   27-A1
  65   0.0000       1.620320        44.0911   28-A1
  66   0.0000       1.788473        48.6668   16-B2
  67   0.0000       1.788473        48.6668   16-B1
  68   0.0000       1.839951        50.0676   17-B2
  69   0.0000       1.839951        50.0676   17-B1
  70   0.0000       1.977737        53.8170   29-A1
  71   0.0000       2.117840        57.6293   18-B2
  72   0.0000       2.117840        57.6293   18-B1
  73   0.0000       2.125859        57.8476   30-A1
  74   0.0000       2.152674        58.5772   31-A1
  75   0.0000       2.152674        58.5772    9-A2
  76   0.0000       2.377937        64.7070   32-A1
  77   0.0000       2.688338        73.1534   33-A1
  78   0.0000       2.688338        73.1534   10-A2
  79   0.0000       2.892356        78.7050   19-B2
  80   0.0000       2.892356        78.7050   19-B1
  81   0.0000       3.186620        86.7123   34-A1
  82   0.0000       3.285442        89.4014   20-B2
  83   0.0000       3.285442        89.4014   20-B1
  84   0.0000       3.290661        89.5434   35-A1
  85   0.0000       3.768371       102.5426   21-B1
  86   0.0000       3.768371       102.5426   21-B2
  87   0.0000       3.903910       106.2308   36-A1
  88   0.0000       3.903910       106.2308   11-A2
  89   0.0000       3.933910       107.0471   22-B2
  90   0.0000       3.933910       107.0471   22-B1
  91   0.0000       3.951303       107.5204   37-A1
  92   0.0000       3.951303       107.5204   12-A2
  93   0.0000       4.031391       109.6997   38-A1
  94   0.0000       4.031391       109.6997   13-A2
  95   0.0000       4.051591       110.2494   23-B2
  96   0.0000       4.051591       110.2494   23-B1
  97   0.0000       4.070313       110.7589   24-B2
  98   0.0000       4.070313       110.7589   24-B1
  99   0.0000       4.089031       111.2682   39-A1
 100   0.0000       4.137365       112.5834   40-A1
 101   0.0000       4.137365       112.5834   14-A2
 102   0.0000       4.241677       115.4219   41-A1
 103   0.0000       4.262842       115.9978   25-B1
 104   0.0000       4.262842       115.9978   25-B2
 105   0.0000       4.664241       126.9204   42-A1
 106   0.0000       4.668083       127.0250   26-B2
 107   0.0000       4.668083       127.0250   26-B1
 108   0.0000       5.259150       143.1087   43-A1
 109   0.0000       6.655053       181.0932   27-B2
 110   0.0000       6.655053       181.0932   27-B1
 111   0.0000       6.829152       185.8307   44-A1
 112   0.0000       6.829152       185.8307   15-A2
 113   0.0000       7.073381       192.4765   28-B1
 114   0.0000       7.073381       192.4765   28-B2
 115   0.0000       7.330356       199.4691   45-A1
 116   0.0000       7.924126       215.6264   46-A1
 117   0.0000       8.398522       228.5354   29-B2
 118   0.0000       8.398522       228.5354   29-B1
 119   0.0000       8.571643       233.2463   47-A1
 120   0.0000       8.571643       233.2463   16-A2
 121   0.0000       9.065203       246.6767   30-B2
 122   0.0000       9.065203       246.6767   30-B1
 123   0.0000       9.282597       252.5923   48-A1
 124   0.0000       9.462644       257.4916   49-A1
 125   0.0000      13.936281       379.2255   50-A1

                    ********************************
                    * MULLIKEN POPULATION ANALYSIS *
                    ********************************

-----------------------
MULLIKEN ATOMIC CHARGES
-----------------------
   0 B :    0.164062
   1 H :   -0.164062
Sum of atomic charges:    0.0000000

--------------------------------
MULLIKEN REDUCED ORBITAL CHARGES
--------------------------------
  0 B s       :     3.818910  s :     3.818910
      pz      :     0.973371  p :     0.973371
      px      :    -0.000000
      py      :    -0.000000
      dz2     :     0.041229  d :     0.041229
      dxz     :     0.000000
      dyz     :     0.000000
      dx2y2   :     0.000000
      dxy     :     0.000000
      f0      :     0.002225  f :     0.002225
      f+1     :    -0.000000
      f-1     :     0.000000
      f+2     :     0.000000
      f-2     :     0.000000
      f+3     :     0.000000
      f-3     :     0.000000
      g0      :     0.000202  g :     0.000202
      g+1     :     0.000000
      g-1     :     0.000000
      g+2     :     0.000000
      g-2     :     0.000000
      g+3     :     0.000000
      g-3     :     0.000000
      g+4     :     0.000000
      g-4     :     0.000000
  1 H s       :     1.137180  s :     1.137180
      pz      :     0.023777  p :     0.023777
      px      :     0.000000
      py      :     0.000000
      dz2     :     0.002807  d :     0.002807
      dxz     :     0.000000
      dyz     :     0.000000
      dx2y2   :     0.000000
      dxy     :     0.000000
      f0      :     0.000298  f :     0.000298
      f+1     :     0.000000
      f-1     :    -0.000000
      f+2     :     0.000000
      f-2     :     0.000000
      f+3     :     0.000000
      f-3     :     0.000000


                     *******************************
                     * LOEWDIN POPULATION ANALYSIS *
                     *******************************

----------------------
LOEWDIN ATOMIC CHARGES
----------------------
   0 B :    0.362269
   1 H :   -0.362269

-------------------------------
LOEWDIN REDUCED ORBITAL CHARGES
-------------------------------
  0 B s       :     3.372958  s :     3.372958
      pz      :     1.155582  p :     1.155582
      px      :     0.000000
      py      :     0.000000
      dz2     :     0.084303  d :     0.084303
      dxz     :     0.000000
      dyz     :     0.000000
      dx2y2   :     0.000000
      dxy     :     0.000000
      f0      :     0.019305  f :     0.019305
      f+1     :     0.000000
      f-1     :     0.000000
      f+2     :     0.000000
      f-2     :     0.000000
      f+3     :     0.000000
      f-3     :     0.000000
      g0      :     0.005584  g :     0.005584
      g+1     :     0.000000
      g-1     :     0.000000
      g+2     :     0.000000
      g-2     :     0.000000
      g+3     :     0.000000
      g-3     :     0.000000
      g+4     :     0.000000
      g-4     :     0.000000
  1 H s       :     0.989487  s :     0.989487
      pz      :     0.268328  p :     0.268328
      px      :     0.000000
      py      :     0.000000
      dz2     :     0.089250  d :     0.089250
      dxz     :     0.000000
      dyz     :     0.000000
      dx2y2   :     0.000000
      dxy     :     0.000000
      f0      :     0.015203  f :     0.015203
      f+1     :     0.000000
      f-1     :     0.000000
      f+2     :     0.000000
      f-2     :     0.000000
      f+3     :     0.000000
      f-3     :     0.000000


                      *****************************
                      * MAYER POPULATION ANALYSIS *
                      *****************************

  NA   - Mulliken gross atomic population
  ZA   - Total nuclear charge
  QA   - Mulliken gross atomic charge
  VA   - Mayer's total valence
  BVA  - Mayer's bonded valence
  FA   - Mayer's free valence

  ATOM       NA         ZA         QA         VA         BVA        FA
  0 B      4.8359     5.0000     0.1641     0.9638     0.9638     0.0000
  1 H      1.1641     1.0000    -0.1641     0.9638     0.9638     0.0000

  Mayer bond orders larger than 0.100000
B(  0-B ,  1-H ) :   0.9638 

-------
TIMINGS
-------

Total SCF time: 0 days 0 hours 0 min 2 sec 

Total time                  ....       2.206 sec
Sum of individual times     ....       2.052 sec  ( 93.1%)

Fock matrix formation       ....       1.993 sec  ( 90.4%)
Diagonalization             ....       0.017 sec  (  0.8%)
Density matrix formation    ....       0.001 sec  (  0.1%)
Population analysis         ....       0.004 sec  (  0.2%)
Initial guess               ....       0.006 sec  (  0.3%)
Orbital Transformation      ....       0.000 sec  (  0.0%)
Orbital Orthonormalization  ....       0.000 sec  (  0.0%)
DIIS solution               ....       0.010 sec  (  0.4%)
SOSCF solution              ....       0.014 sec  (  0.6%)

Maximum memory used throughout the entire SCF-calculation: 228.6 MB
[cnode16:424907] 7 more processes have sent help message help-mpi-btl-openib.txt / error in device init
[cnode16:424907] Set MCA parameter "orte_base_help_aggregate" to 0 to see all help / error messages

-------------------------   --------------------
FINAL SINGLE POINT ENERGY       -25.099848468781
-------------------------   --------------------


                            ***************************************
                            *     ORCA property calculations      *
                            ***************************************

                                    ---------------------
                                    Active property flags
                                    ---------------------
   (+) Dipole Moment


------------------------------------------------------------------------------
                       ORCA ELECTRIC PROPERTIES CALCULATION
------------------------------------------------------------------------------

Dipole Moment Calculation                       ... on
Quadrupole Moment Calculation                   ... off
Polarizability Calculation                      ... off
GBWName                                         ... /scratch/BH-1.6-O_509/BH-1.6-O.gbw
Electron density file                           ... /scratch/BH-1.6-O_509/BH-1.6-O.scfp
The origin for moment calculation is the CENTER OF MASS  = ( 0.000000,  0.000000 -0.000000)

-------------
DIPOLE MOMENT
-------------
                                X             Y             Z
Electronic contribution:      0.00000       0.00000      -1.31311
Nuclear contribution   :      0.00000       0.00000       1.47622
                        -----------------------------------------
Total Dipole Moment    :      0.00000       0.00000       0.16311
                        -----------------------------------------
Magnitude (a.u.)       :      0.16311
Magnitude (Debye)      :      0.41458



--------------------
Rotational spectrum 
--------------------
 
Rotational constants in cm-1:     0.000000     7.141915     7.141915 
Rotational constants in MHz :     0.000000 214109.234235 214109.234235 

 Dipole components along the rotational axes: 
x,y,z [a.u.] :     0.163107     0.000000     0.000000 
x,y,z [Debye]:     0.414585     0.000000     0.000000 

 
--------------------------------------------------------------------------
WARNING: There was an error initializing an OpenFabrics device.

  Local host:   cnode16
  Local device: mlx5_0
--------------------------------------------------------------------------
[cnode16:425098] 7 more processes have sent help message help-mpi-btl-openib.txt / error in device init
[cnode16:425098] Set MCA parameter "orte_base_help_aggregate" to 0 to see all help / error messages

Timings for individual modules:

Sum of individual times         ...        3.059 sec (=   0.051 min)
GTO integral calculation        ...        0.481 sec (=   0.008 min)  15.7 %
SCF iterations                  ...        2.579 sec (=   0.043 min)  84.3 %
                             ****ORCA TERMINATED NORMALLY****
TOTAL RUN TIME: 0 days 0 hours 0 minutes 3 seconds 516 msec

Sender: Unischeduler System <lcz@mgt01>
Subject: Job 133492: <#!/bin/bash
#BSUB -J intel
#BSUB -o BH-1.6-O.out
#BSUB -n 8
#BSUB -q cqueue
export LD_LIBRARY_PATH=/apps/software/openmpi-4.1.1/lib:/apps/software/orca_5_0_0:$LD_LIBRARY_PATH
export PATH=/apps/software/openmpi-4.1.1/bin:/apps/software/orca_5_0_0:$PATH
mkdir /scratch/BH-1.6-O_509
scp $USER@mgt01:/apps/users/lcz/exe13/RHF/BH-1.6-O.inp /scratch/BH-1.6-O_509
/apps/software/orca_5_0_0/orca /scratch/BH-1.6-O_509/BH-1.6-O.inp >& BH-1.6-O.out
scp /scratch/BH-1.6-O_509/*.gbw $USER@mgt01:/apps/users/lcz/exe13/RHF
scp /scratch/BH-1.6-O_509/*.xyz $USER@mgt01:/apps/users/lcz/exe13/RHF
scp /scratch/BH-1.6-O_509/*.trj $USER@mgt01:/apps/users/lcz/exe13/RHF> Exited

Job <#!/bin/bash
#BSUB -J intel
#BSUB -o BH-1.6-O.out
#BSUB -n 8
#BSUB -q cqueue
export LD_LIBRARY_PATH=/apps/software/openmpi-4.1.1/lib:/apps/software/orca_5_0_0:$LD_LIBRARY_PATH
export PATH=/apps/software/openmpi-4.1.1/bin:/apps/software/orca_5_0_0:$PATH
mkdir /scratch/BH-1.6-O_509
scp $USER@mgt01:/apps/users/lcz/exe13/RHF/BH-1.6-O.inp /scratch/BH-1.6-O_509
/apps/software/orca_5_0_0/orca /scratch/BH-1.6-O_509/BH-1.6-O.inp >& BH-1.6-O.out
scp /scratch/BH-1.6-O_509/*.gbw $USER@mgt01:/apps/users/lcz/exe13/RHF
scp /scratch/BH-1.6-O_509/*.xyz $USER@mgt01:/apps/users/lcz/exe13/RHF
scp /scratch/BH-1.6-O_509/*.trj $USER@mgt01:/apps/users/lcz/exe13/RHF> was submitted from host <mgt01> by user <lcz>.
Job was executed on host(s) <8*cnode16>, in queue <cqueue>, as user <lcz>.
</apps/users/lcz> was used as the home directory.
</apps/users/lcz/exe13/RHF> was used as the working directory.
Started at 2022-05-21 17:13:53
Results reported at 2022-05-21 17:13:58

Your job looked like:

------------------------------------------------------------
# User input
#!/bin/bash
#BSUB -J intel
#BSUB -o BH-1.6-O.out
#BSUB -n 8
#BSUB -q cqueue
export LD_LIBRARY_PATH=/apps/software/openmpi-4.1.1/lib:/apps/software/orca_5_0_0:$LD_LIBRARY_PATH
export PATH=/apps/software/openmpi-4.1.1/bin:/apps/software/orca_5_0_0:$PATH
mkdir /scratch/BH-1.6-O_509
scp $USER@mgt01:/apps/users/lcz/exe13/RHF/BH-1.6-O.inp /scratch/BH-1.6-O_509
/apps/software/orca_5_0_0/orca /scratch/BH-1.6-O_509/BH-1.6-O.inp >& BH-1.6-O.out
scp /scratch/BH-1.6-O_509/*.gbw $USER@mgt01:/apps/users/lcz/exe13/RHF
scp /scratch/BH-1.6-O_509/*.xyz $USER@mgt01:/apps/users/lcz/exe13/RHF
scp /scratch/BH-1.6-O_509/*.trj $USER@mgt01:/apps/users/lcz/exe13/RHF
------------------------------------------------------------

Exited with exit code 1.

Resource usage summary:

    CPU time   :            23.9 sec.
    Max Memory :                22 MB
    Max Processes  :               5


The output (if any) follows:

/scratch/BH-1.6-O_509/*.xyz: No such file or directory
/scratch/BH-1.6-O_509/*.trj: No such file or directory
