
                                        *****************
                                        * O   R   C   A *
                                        *****************

                                            #,                                       
                                            ###                                      
                                            ####                                     
                                            #####                                    
                                            ######                                   
                                           ########,                                 
                                     ,,################,,,,,                         
                               ,,#################################,,                 
                          ,,##########################################,,             
                       ,#########################################, ''#####,          
                    ,#############################################,,   '####,        
                  ,##################################################,,,,####,       
                ,###########''''           ''''###############################       
              ,#####''   ,,,,##########,,,,          '''####'''          '####       
            ,##' ,,,,###########################,,,                        '##       
           ' ,,###''''                  '''############,,,                           
         ,,##''                                '''############,,,,        ,,,,,,###''
      ,#''                                            '''#######################'''  
     '                                                          ''''####''''         
             ,#######,   #######,   ,#######,      ##                                
            ,#'     '#,  ##    ##  ,#'     '#,    #''#        ######   ,####,        
            ##       ##  ##   ,#'  ##            #'  '#       #        #'  '#        
            ##       ##  #######   ##           ,######,      #####,   #    #        
            '#,     ,#'  ##    ##  '#,     ,#' ,#      #,         ##   #,  ,#        
             '#######'   ##     ##  '#######'  #'      '#     #####' # '####'        



                  #######################################################
                  #                        -***-                        #
                  #          Department of theory and spectroscopy      #
                  #    Directorship and core code : Frank Neese         #
                  #        Max Planck Institute fuer Kohlenforschung    #
                  #                Kaiser Wilhelm Platz 1               #
                  #                 D-45470 Muelheim/Ruhr               #
                  #                      Germany                        #
                  #                                                     #
                  #                  All rights reserved                #
                  #                        -***-                        #
                  #######################################################


                         Program Version 5.0.0 -  RELEASE  -
                                (SVN: $Rev: 19529$)
                ($Date: 2021-06-28 11:36:33 +0200 (Mo, 28 Jun 2021) $)


 With contributions from (in alphabetic order):
   Daniel Aravena         : Magnetic Suceptibility
   Michael Atanasov       : Ab Initio Ligand Field Theory (pilot matlab implementation)
   Alexander A. Auer      : GIAO ZORA, VPT2 properties, NMR spectrum
   Ute Becker             : Parallelization
   Giovanni Bistoni       : ED, misc. LED, open-shell LED, HFLD
   Martin Brehm           : Molecular dynamics
   Dmytro Bykov           : SCF Hessian
   Vijay G. Chilkuri      : MRCI spin determinant printing, contributions to CSF-ICE
   Dipayan Datta          : RHF DLPNO-CCSD density
   Achintya Kumar Dutta   : EOM-CC, STEOM-CC
   Dmitry Ganyushin       : Spin-Orbit,Spin-Spin,Magnetic field MRCI
   Miquel Garcia          : C-PCM Hessian, Gaussian charge scheme
   Yang Guo               : DLPNO-NEVPT2, F12-NEVPT2, CIM, IAO-localization
   Andreas Hansen         : Spin unrestricted coupled pair/coupled cluster methods
   Benjamin Helmich-Paris : MC-RPA, TRAH-SCF, COSX integrals
   Lee Huntington         : MR-EOM, pCC
   Robert Izsak           : Overlap fitted RIJCOSX, COSX-SCS-MP3, EOM
   Marcus Kettner         : VPT2
   Christian Kollmar      : KDIIS, OOCD, Brueckner-CCSD(T), CCSD density, CASPT2, CASPT2-K
   Simone Kossmann        : Meta GGA functionals, TD-DFT gradient, OOMP2, MP2 Hessian
   Martin Krupicka        : Initial AUTO-CI
   Lucas Lang             : DCDCAS
   Marvin Lechner         : AUTO-CI (C++ implementation), FIC-MRCC
   Dagmar Lenk            : GEPOL surface, SMD
   Dimitrios Liakos       : Extrapolation schemes; Compound Job, initial MDCI parallelization
   Dimitrios Manganas     : Further ROCIS development; embedding schemes
   Dimitrios Pantazis     : SARC Basis sets
   Anastasios Papadopoulos: AUTO-CI, single reference methods and gradients
   Taras Petrenko         : DFT Hessian,TD-DFT gradient, ASA, ECA, R-Raman, ABS, FL, XAS/XES, NRVS
   Peter Pinski           : DLPNO-MP2, DLPNO-MP2 Gradient
   Christoph Reimann      : Effective Core Potentials
   Marius Retegan         : Local ZFS, SOC
   Christoph Riplinger    : Optimizer, TS searches, QM/MM, DLPNO-CCSD(T), (RO)-DLPNO pert. Triples
   Tobias Risthaus        : Range-separated hybrids, TD-DFT gradient, RPA, STAB
   Michael Roemelt        : Original ROCIS implementation
   Masaaki Saitow         : Open-shell DLPNO-CCSD energy and density
   Barbara Sandhoefer     : DKH picture change effects
   Avijit Sen             : IP-ROCIS
   Kantharuban Sivalingam : CASSCF convergence, NEVPT2, FIC-MRCI
   Bernardo de Souza      : ESD, SOC TD-DFT
   Georgi Stoychev        : AutoAux, RI-MP2 NMR
   Willem Van den Heuvel  : Paramagnetic NMR
   Boris Wezisla          : Elementary symmetry handling
   Frank Wennmohs         : Technical directorship


 We gratefully acknowledge several colleagues who have allowed us to
 interface, adapt or use parts of their codes:
   Stefan Grimme, W. Hujo, H. Kruse, P. Pracht,  : VdW corrections, initial TS optimization,
                  C. Bannwarth, S. Ehlert          DFT functionals, gCP, sTDA/sTD-DF
   Ed Valeev, F. Pavosevic, A. Kumar             : LibInt (2-el integral package), F12 methods
   Garnet Chan, S. Sharma, J. Yang, R. Olivares  : DMRG
   Ulf Ekstrom                                   : XCFun DFT Library
   Mihaly Kallay                                 : mrcc  (arbitrary order and MRCC methods)
   Jiri Pittner, Ondrej Demel                    : Mk-CCSD
   Frank Weinhold                                : gennbo (NPA and NBO analysis)
   Christopher J. Cramer and Donald G. Truhlar   : smd solvation model
   Lars Goerigk                                  : TD-DFT with DH, B97 family of functionals
   V. Asgeirsson, H. Jonsson                     : NEB implementation
   FAccTs GmbH                                   : IRC, NEB, NEB-TS, DLPNO-Multilevel, CI-OPT
                                                   MM, QMMM, 2- and 3-layer-ONIOM, Crystal-QMMM,
                                                   LR-CPCM, SF, NACMEs, symmetry and pop. for TD-DFT,
                                                   nearIR, NL-DFT gradient (VV10), updates on ESD,
                                                   ML-optimized integration grids
   S Lehtola, MJT Oliveira, MAL Marques          : LibXC Library
   Liviu Ungur et al                             : ANISO software


 Your calculation uses the libint2 library for the computation of 2-el integrals
 For citations please refer to: http://libint.valeyev.net

 Your ORCA version has been built with support for libXC version: 5.1.0
 For citations please refer to: https://tddft.org/programs/libxc/

 This ORCA versions uses:
   CBLAS   interface :  Fast vector & matrix operations
   LAPACKE interface :  Fast linear algebra routines
   SCALAPACK package :  Parallel linear algebra routines
   Shared memory     :  Shared parallel matrices
   BLAS/LAPACK       :  OpenBLAS 0.3.15  USE64BITINT DYNAMIC_ARCH NO_AFFINITY SkylakeX SINGLE_THREADED
        Core in use  :  SkylakeX
   Copyright (c) 2011-2014, The OpenBLAS Project


================================================================================

----- Orbital basis set information -----
Your calculation utilizes the basis: aug-cc-pVQZ 
    H, B-Ne : Obtained from the ccRepo (grant-hill.group.shef.ac.uk/ccrepo) Feb. 2017
              R. A. Kendall, T. H. Dunning, Jr., R. J. Harrison, J. Chem. Phys. 96, 6796 (1992)
         He : Obtained from the ccRepo (grant-hill.group.shef.ac.uk/ccrepo) Feb. 2017
              D. E. Woon, T. H. Dunning, Jr., J. Chem. Phys. 100, 2975 (1994)
  Li-Be, Na : Obtained from the ccRepo (grant-hill.group.shef.ac.uk/ccrepo) Feb. 2017
              B. P. Prascher, D. E. Woon, K. A. Peterson, T. H. Dunning, Jr., A. K. Wilson, Theor. Chem. Acc. 128, 69 (2011)
         Mg : Obtained from the Peterson Research Group Website (tyr0.chem.wsu.edu/~kipeters) Feb. 2017
              B. P. Prascher, D. E. Woon, K. A. Peterson, T. H. Dunning, Jr., A. K. Wilson, Theor. Chem. Acc. 128, 69 (2011)
      Al-Ar : Obtained from the ccRepo (grant-hill.group.shef.ac.uk/ccrepo) Feb. 2017
              D. E. Woon, T. H. Dunning, Jr., J. Chem. Phys. 98, 1358 (1993)
      Sc-Zn : Obtained from the ccRepo (grant-hill.group.shef.ac.uk/ccrepo) Feb. 2017
              N. B. Balabanov, K. A. Peterson, J. Chem. Phys. 123, 064107 (2005)
              N. B. Balabanov, K. A. Peterson, J. Chem. Phys. 125, 074110 (2006)
      Ga-Kr : Obtained from the ccRepo (grant-hill.group.shef.ac.uk/ccrepo) Feb. 2017
              A. K. Wilson, D. E. Woon, K. A. Peterson, T. H. Dunning, Jr., J. Chem. Phys. 110, 7667 (1999)

================================================================================
                                        WARNINGS
                       Please study these warnings very carefully!
================================================================================


INFO   : the flag for use of the SHARK integral package has been found!

================================================================================
                                       INPUT FILE
================================================================================
NAME = /scratch/BH-1.0-O_874/BH-1.0-O.inp
|  1> ! RHF aug-cc-pVQZ pal8 VeryTightSCF UseSym
|  2> 
|  3> *xyz 0 1
|  4>  B	0.0	0.0	0.0
|  5>  H	1.0	0.0	0.0
|  6> **                         ****END OF INPUT****
================================================================================

------------------------------------------------------------------------------
                            SYMMETRY HANDLING SETUP
------------------------------------------------------------------------------

------------------
SYMMETRY DETECTION
------------------
The point group will now be determined using a tolerance of 1.0000e-04.
Splitting atom subsets according to nuclear charge, mass and basis set.
Splitting atom subsets according to distance from the molecule's center.
Identifying relative distance patterns of the atoms.
Splitting atom subsets according to atoms' relative distance patterns.
Bring atoms of each subset into input order.
The molecule is linear.
There is at least one atom subset not centered around the molecule's center.
The molecule does not have a center of inversion.
No further test is needed for point group Cinfv.
This point group has been found:    Cinfv
Largest non-degenerate subgroup:    C2v


Mass-centered symmetry-perfected Cartesians (point groups Cinfv and C2v):

Atom          Symmetry-perfected Cartesians (x, y, z; au)
  0       0.000000000000    0.000000000000   -0.161181582585
  1       0.000000000000    0.000000000000    1.728544551336


-----------------------------------------------
SYMMETRY-PERFECTED CARTESIAN COORDINATES (A.U.)
-----------------------------------------------
Warning (ORCA_SYM): Coordinates were not cleaned so far!

------------------
SYMMETRY REDUCTION
------------------
ORCA supports only abelian point groups.
It is now checked, if the determined point group is supported:
Point Group ( C2v   ) is          ... supported

(Re)building abelian point group:
Creating Character Table          ... done
Making direct product table       ... done
Constructing symmetry operations  ... done
Creating atom transfer table      ... done
Creating asymmetric unit          ... done

----------------------
ASYMMETRIC UNIT IN C2v
----------------------
  #  AT     MASS              COORDS (A.U.)             BAS
   0 B   10.8100   0.00000000   0.00000000  -0.16118158   0
   1 H    1.0080   0.00000000   0.00000000   1.72854455   0

----------------------
SYMMETRY ADAPTED BASIS
----------------------
The coefficients for the symmetry adapted linear combinations (SALCS)
of basis functions will now be computed:
Number of basis functions         ...   126
Preparing memory                  ... done
Constructing Gamma(red)           ... done
Reducing Gamma(red)               ... done
Constructing SALCs                ... done
Checking SALC integrity           ... nothing suspicious
Normalizing SALCs                 ... done

Storing the symmetry object:
Symmetry file                     ... /scratch/BH-1.0-O_874/BH-1.0-O.sym.tmp
Writing symmetry information      ... done

                       ****************************
                       * Single Point Calculation *
                       ****************************

---------------------------------
CARTESIAN COORDINATES (ANGSTROEM)
---------------------------------
  B      0.000000    0.000000   -0.085294
  H      0.000000    0.000000    0.914706

----------------------------
CARTESIAN COORDINATES (A.U.)
----------------------------
  NO LB      ZA    FRAG     MASS         X           Y           Z
   0 B     5.0000    0    10.810    0.000000    0.000000   -0.161182
   1 H     1.0000    0     1.008    0.000000    0.000000    1.728545

--------------------------------
INTERNAL COORDINATES (ANGSTROEM)
--------------------------------
 B      0   0   0     0.000000000000     0.00000000     0.00000000
 H      1   0   0     1.000000000000     0.00000000     0.00000000

---------------------------
INTERNAL COORDINATES (A.U.)
---------------------------
 B      0   0   0     0.000000000000     0.00000000     0.00000000
 H      1   0   0     1.889726133921     0.00000000     0.00000000

---------------------
BASIS SET INFORMATION
---------------------
There are 2 groups of distinct atoms

 Group   1 Type B   : 22s7p4d3f2g contracted to 6s5p4d3f2g pattern {991111/31111/1111/111/11}
 Group   2 Type H   : 7s4p3d2f contracted to 5s4p3d2f pattern {31111/1111/111/11}

Atom   0B    basis set group =>   1
Atom   1H    basis set group =>   2
--------------------------------------------------------------------------
WARNING: There was an error initializing an OpenFabrics device.

  Local host:   cnode04
  Local device: mlx5_0
--------------------------------------------------------------------------


           ************************************************************
           *        Program running with 8 parallel MPI-processes     *
           *              working on a common directory               *
           ************************************************************
------------------------------------------------------------------------------
                           ORCA GTO INTEGRAL CALCULATION
------------------------------------------------------------------------------
------------------------------------------------------------------------------
                   ___                                                        
                  /   \      - P O W E R E D   B Y -                         
                 /     \                                                     
                 |  |  |   _    _      __       _____    __    __             
                 |  |  |  | |  | |    /  \     |  _  \  |  |  /  |          
                  \  \/   | |  | |   /    \    | | | |  |  | /  /          
                 / \  \   | |__| |  /  /\  \   | |_| |  |  |/  /          
                |  |  |   |  __  | /  /__\  \  |    /   |      \           
                |  |  |   | |  | | |   __   |  |    \   |  |\   \          
                \     /   | |  | | |  |  |  |  | |\  \  |  | \   \       
                 \___/    |_|  |_| |__|  |__|  |_| \__\ |__|  \__/        
                                                                              
                      - O R C A' S   B I G   F R I E N D -                    
                                      &                                       
                       - I N T E G R A L  F E E D E R -                       
                                                                              
 v1 FN, 2020, v2 2021                                                         
------------------------------------------------------------------------------


Reading SHARK input file /scratch/BH-1.0-O_874/BH-1.0-O.SHARKINP.tmp ... ok
----------------------
SHARK INTEGRAL PACKAGE
----------------------

Number of atoms                             ...      2
Number of basis functions                   ...    126
Number of shells                            ...     34
Maximum angular momentum                    ...      4
Integral batch strategy                     ... SHARK/LIBINT Hybrid
RI-J (if used) integral strategy            ... SPLIT-RIJ (Revised 2003 algorithm where possible)
Printlevel                                  ...      1
Contraction scheme used                     ... SEGMENTED contraction
Coulomb Range Separation                    ... NOT USED
Exchange Range Separation                   ... NOT USED
Finite Nucleus Model                        ... NOT USED
Auxiliary Coulomb fitting basis             ... NOT available
Auxiliary J/K fitting basis                 ... NOT available
Auxiliary Correlation fitting basis         ... NOT available
Auxiliary 'external' fitting basis          ... NOT available
Integral threshold                          ...     1.000000e-12
Primitive cut-off                           ...     1.000000e-14
Primitive pair pre-selection threshold      ...     1.000000e-14

Calculating pre-screening integrals         ... done (  0.1 sec) Dimension = 34
Organizing shell pair data                  ... done (  0.0 sec)
Shell pair information
Total number of shell pairs                 ...       595
Shell pairs after pre-screening             ...       595
Total number of primitive shell pairs       ...      1563
Primitive shell pairs kept                  ...      1540
          la=0 lb=0:     66 shell pairs
          la=1 lb=0:     99 shell pairs
          la=1 lb=1:     45 shell pairs
          la=2 lb=0:     77 shell pairs
          la=2 lb=1:     63 shell pairs
          la=2 lb=2:     28 shell pairs
          la=3 lb=0:     55 shell pairs
          la=3 lb=1:     45 shell pairs
          la=3 lb=2:     35 shell pairs
          la=3 lb=3:     15 shell pairs
          la=4 lb=0:     22 shell pairs
          la=4 lb=1:     18 shell pairs
          la=4 lb=2:     14 shell pairs
          la=4 lb=3:     10 shell pairs
          la=4 lb=4:      3 shell pairs

Calculating one electron integrals          ... done (  0.0 sec)
Calculating Nuclear repulsion               ... done (  0.0 sec) ENN=      2.645886041500 Eh

SHARK setup successfully completed in   0.1 seconds

Maximum memory used throughout the entire GTOINT-calculation: 28.9 MB
[cnode04:423284] 7 more processes have sent help message help-mpi-btl-openib.txt / error in device init
[cnode04:423284] Set MCA parameter "orte_base_help_aggregate" to 0 to see all help / error messages
--------------------------------------------------------------------------
WARNING: There was an error initializing an OpenFabrics device.

  Local host:   cnode04
  Local device: mlx5_0
--------------------------------------------------------------------------


           ************************************************************
           *        Program running with 8 parallel MPI-processes     *
           *              working on a common directory               *
           ************************************************************
-------------------------------------------------------------------------------
                                 ORCA SCF
-------------------------------------------------------------------------------

------------
SCF SETTINGS
------------
Hamiltonian:
 Ab initio Hamiltonian  Method          .... Hartree-Fock(GTOs)


General Settings:
 Integral files         IntName         .... /scratch/BH-1.0-O_874/BH-1.0-O
 Hartree-Fock type      HFTyp           .... RHF
 Total Charge           Charge          ....    0
 Multiplicity           Mult            ....    1
 Number of Electrons    NEL             ....    6
 Basis Dimension        Dim             ....  126
 Nuclear Repulsion      ENuc            ....      2.6458860415 Eh

 Symmetry handling      UseSym         .... ON
 Point group                           .... C2v
 Used point group                      .... C2v
 Number of irreps                      .... 4
   Irrep   A1 has   50 symmetry adapted basis functions (ofs=   0)
   Irrep   A2 has   16 symmetry adapted basis functions (ofs=  50)
   Irrep   B1 has   30 symmetry adapted basis functions (ofs=  66)
   Irrep   B2 has   30 symmetry adapted basis functions (ofs=  96)

Convergence Acceleration:
 DIIS                   CNVDIIS         .... on
   Start iteration      DIISMaxIt       ....    12
   Startup error        DIISStart       ....  0.200000
   # of expansion vecs  DIISMaxEq       ....     5
   Bias factor          DIISBfac        ....   1.050
   Max. coefficient     DIISMaxC        ....  10.000
 Trust-Rad. Augm. Hess. CNVTRAH         .... auto
   Auto Start mean grad. ratio tolernc. ....  1.125000
   Auto Start start iteration           ....    20
   Auto Start num. interpolation iter.  ....    10
   Max. Number of Micro iterations      ....    16
   Max. Number of Macro iterations      .... Maxiter - #DIIS iter
   Number of Davidson start vectors     ....     2
   Converg. threshold I  (grad. norm)   ....   2.000e-06
   Converg. threshold II (energy diff.) ....   1.000e-09
   Grad. Scal. Fac. for Micro threshold ....   0.100
   Minimum threshold for Micro iter.    ....   0.010
   NR start threshold (gradient norm)   ....   0.001
   Initial trust radius                 ....   0.400
   Minimum AH scaling param. (alpha)    ....   1.000
   Maximum AH scaling param. (alpha)    .... 1000.000
   Orbital update algorithm             .... Taylor
   White noise on init. David. guess    .... on
   Maximum white noise                  ....   0.010
   Quad. conv. algorithm                .... NR
 SOSCF                  CNVSOSCF        .... on
   Start iteration      SOSCFMaxIt      ....   150
   Startup grad/error   SOSCFStart      ....  0.003300
 Level Shifting         CNVShift        .... on
   Level shift para.    LevelShift      ....    0.2500
   Turn off err/grad.   ShiftErr        ....    0.0010
 Zerner damping         CNVZerner       .... off
 Static damping         CNVDamp         .... on
   Fraction old density DampFac         ....    0.7000
   Max. Damping (<1)    DampMax         ....    0.9800
   Min. Damping (>=0)   DampMin         ....    0.0000
   Turn off err/grad.   DampErr         ....    0.1000
 Fernandez-Rico         CNVRico         .... off

SCF Procedure:
 Maximum # iterations   MaxIter         ....   125
 SCF integral mode      SCFMode         .... Direct
   Integral package                     .... SHARK and LIBINT hybrid scheme
 Reset frequency        DirectResetFreq ....    20
 Integral Threshold     Thresh          ....  1.000e-12 Eh
 Primitive CutOff       TCut            ....  1.000e-14 Eh

Convergence Tolerance:
 Convergence Check Mode ConvCheckMode   .... Total+1el-Energy
 Convergence forced     ConvForced      .... 0
 Energy Change          TolE            ....  1.000e-09 Eh
 1-El. energy change                    ....  1.000e-06 Eh
 Orbital Gradient       TolG            ....  2.000e-06
 Orbital Rotation angle TolX            ....  2.000e-06
 DIIS Error             TolErr          ....  1.000e-08


Diagonalization of the overlap matrix:
Smallest eigenvalue                        ... 5.979e-05
Time for diagonalization                   ...    0.002 sec
Threshold for overlap eigenvalues          ... 1.000e-08
Number of eigenvalues below threshold      ... 0
Time for construction of square roots      ...    0.002 sec
Producing symmetrization matrix            ... done (   0.000 sec)
Total time needed                          ...    0.005 sec

Time for model grid setup =    0.007 sec

------------------------------
INITIAL GUESS: MODEL POTENTIAL
------------------------------
Loading Hartree-Fock densities                     ... done
Calculating cut-offs                               ... done
Initializing the effective Hamiltonian             ... done
Setting up the integral package (SHARK)            ... done
Starting the Coulomb interaction                   ... done (   0.0 sec)
Reading the grid                                   ... done
Mapping shells                                     ... done
Starting the XC term evaluation                    ... done (   0.0 sec)
done (   0.0 sec)
Diagonalizing the Hamiltonian                      ... done (   0.0 sec)
Back transforming the eigenvectors                 ... done (   0.0 sec)
Now organizing SCF variables                       ... done
The symmetry of the initial guess is 1-A1
Irrep occupations for operator 0
    A1 -    3
    A2 -    0
    B1 -    0
    B2 -    0
                      ------------------
                      INITIAL GUESS DONE (   0.1 sec)
                      ------------------
--------------
SCF ITERATIONS
--------------
ITER       Energy         Delta-E        Max-DP      RMS-DP      [F,P]     Damp
               ***  Starting incremental Fock matrix formation  ***
  0    -25.0903672400   0.000000000000 0.06051137  0.00087454  0.1041120 0.7000
  1    -25.0939929773  -0.003625737269 0.04524313  0.00068233  0.0767465 0.7000
                               ***Turning on DIIS***
  2    -25.0967320732  -0.002739095904 0.10951948  0.00168550  0.0562471 0.0000
  3    -25.1087613119  -0.012029238652 0.01286323  0.00019668  0.0061894 0.0000
                      *** Initiating the SOSCF procedure ***
                           *** Shutting down DIIS ***
                      *** Re-Reading the Fockian *** 
                      *** Removing any level shift *** 
ITER      Energy       Delta-E        Grad      Rot      Max-DP    RMS-DP
  4    -25.10395911   0.0048022005  0.000724  0.000724  0.003993  0.000065
               *** Restarting incremental Fock matrix formation ***
  5    -25.10366294   0.0002961761  0.000327  0.000691  0.004904  0.000073
  6    -25.10366517  -0.0000022307  0.000115  0.000367  0.003005  0.000042
  7    -25.10366547  -0.0000003001  0.000009  0.000014  0.000115  0.000002
  8    -25.10366547  -0.0000000017  0.000003  0.000008  0.000020  0.000000
                 **** Energy Check signals convergence ****
              ***Rediagonalizing the Fockian in SOSCF/NRSCF***

               *****************************************************
               *                     SUCCESS                       *
               *           SCF CONVERGED AFTER   9 CYCLES          *
               *****************************************************


----------------
TOTAL SCF ENERGY
----------------

Total Energy       :          -25.10366547 Eh            -683.10547 eV

Components:
Nuclear Repulsion  :            2.64588604 Eh              71.99822 eV
Electronic Energy  :          -27.74955151 Eh            -755.10369 eV
One Electron Energy:          -38.06719633 Eh           -1035.86107 eV
Two Electron Energy:           10.31764482 Eh             280.75739 eV

Virial components:
Potential Energy   :          -50.51140090 Eh           -1374.48510 eV
Kinetic Energy     :           25.40773543 Eh             691.37963 eV
Virial Ratio       :            1.98803239


---------------
SCF CONVERGENCE
---------------

  Last Energy change         ...   -1.9725e-10  Tolerance :   1.0000e-09
  Last MAX-Density change    ...    4.0175e-06  Tolerance :   1.0000e-08
  Last RMS-Density change    ...    5.6666e-08  Tolerance :   1.0000e-09
  Last Orbital Gradient      ...    3.9742e-07  Tolerance :   2.0000e-06
  Last Orbital Rotation      ...    9.1004e-07  Tolerance :   2.0000e-06

             **** THE GBW FILE WAS UPDATED (/scratch/BH-1.0-O_874/BH-1.0-O.gbw) ****
             **** DENSITY /scratch/BH-1.0-O_874/BH-1.0-O.scfp WAS UPDATED ****
             **** ENERGY FILE WAS UPDATED (/scratch/BH-1.0-O_874/BH-1.0-O.en.tmp) ****
             **** THE GBW FILE WAS UPDATED (/scratch/BH-1.0-O_874/BH-1.0-O.gbw) ****
             **** DENSITY /scratch/BH-1.0-O_874/BH-1.0-O.scfp WAS UPDATED ****
----------------
ORBITAL ENERGIES
----------------

  NO   OCC          E(Eh)            E(eV)    Irrep 
   0   2.0000      -7.657473      -208.3704    1-A1
   1   2.0000      -0.716350       -19.4929    2-A1
   2   2.0000      -0.342131        -9.3099    3-A1
   3   0.0000       0.024708         0.6723    1-B1
   4   0.0000       0.024708         0.6723    1-B2
   5   0.0000       0.028642         0.7794    4-A1
   6   0.0000       0.044884         1.2214    5-A1
   7   0.0000       0.079668         2.1679    2-B1
   8   0.0000       0.079668         2.1679    2-B2
   9   0.0000       0.117201         3.1892    6-A1
  10   0.0000       0.132853         3.6151    3-B1
  11   0.0000       0.132853         3.6151    3-B2
  12   0.0000       0.145395         3.9564    1-A2
  13   0.0000       0.145395         3.9564    7-A1
  14   0.0000       0.147067         4.0019    8-A1
  15   0.0000       0.180598         4.9143    9-A1
  16   0.0000       0.273124         7.4321    4-B1
  17   0.0000       0.273124         7.4321    4-B2
  18   0.0000       0.277001         7.5376   10-A1
  19   0.0000       0.325090         8.8462    5-B1
  20   0.0000       0.325090         8.8462    5-B2
  21   0.0000       0.411599        11.2002   11-A1
  22   0.0000       0.437877        11.9152   12-A1
  23   0.0000       0.440625        11.9900    2-A2
  24   0.0000       0.440625        11.9900   13-A1
  25   0.0000       0.461617        12.5612    6-B2
  26   0.0000       0.461617        12.5612    6-B1
  27   0.0000       0.479015        13.0347    7-B2
  28   0.0000       0.479015        13.0347    7-B1
  29   0.0000       0.503380        13.6977   14-A1
  30   0.0000       0.503380        13.6977    3-A2
  31   0.0000       0.510228        13.8840   15-A1
  32   0.0000       0.567284        15.4366   16-A1
  33   0.0000       0.603624        16.4254    8-B1
  34   0.0000       0.603624        16.4254    8-B2
  35   0.0000       0.768710        20.9177   17-A1
  36   0.0000       0.776530        21.1305    9-B2
  37   0.0000       0.776530        21.1305    9-B1
  38   0.0000       0.805516        21.9192    4-A2
  39   0.0000       0.805516        21.9192   18-A1
  40   0.0000       0.964586        26.2477   19-A1
  41   0.0000       1.054167        28.6853   10-B1
  42   0.0000       1.054167        28.6853   10-B2
  43   0.0000       1.058278        28.7972   20-A1
  44   0.0000       1.183398        32.2019   11-B1
  45   0.0000       1.183398        32.2019   11-B2
  46   0.0000       1.370320        37.2883    5-A2
  47   0.0000       1.370320        37.2883   21-A1
  48   0.0000       1.372396        37.3448   22-A1
  49   0.0000       1.376267        37.4501   12-B2
  50   0.0000       1.376267        37.4501   12-B1
  51   0.0000       1.395745        37.9801    6-A2
  52   0.0000       1.395745        37.9801   23-A1
  53   0.0000       1.441698        39.2306   13-B1
  54   0.0000       1.441698        39.2306   13-B2
  55   0.0000       1.448623        39.4190    7-A2
  56   0.0000       1.448623        39.4190   24-A1
  57   0.0000       1.474281        40.1172   14-B1
  58   0.0000       1.474281        40.1172   14-B2
  59   0.0000       1.485062        40.4106   25-A1
  60   0.0000       1.604387        43.6576   26-A1
  61   0.0000       1.625298        44.2266   15-B2
  62   0.0000       1.625298        44.2266   15-B1
  63   0.0000       1.693259        46.0759    8-A2
  64   0.0000       1.693259        46.0759   27-A1
  65   0.0000       1.876270        51.0559   28-A1
  66   0.0000       1.883884        51.2631   16-B1
  67   0.0000       1.883884        51.2631   16-B2
  68   0.0000       1.918959        52.2175   29-A1
  69   0.0000       1.974034        53.7162   17-B2
  70   0.0000       1.974034        53.7162   17-B1
  71   0.0000       2.020107        54.9699    9-A2
  72   0.0000       2.020107        54.9699   30-A1
  73   0.0000       2.160057        58.7781   31-A1
  74   0.0000       2.251321        61.2616   18-B1
  75   0.0000       2.251321        61.2616   18-B2
  76   0.0000       2.884703        78.4968   32-A1
  77   0.0000       3.123120        84.9844   19-B1
  78   0.0000       3.123120        84.9844   19-B2
  79   0.0000       3.279649        89.2438   20-B2
  80   0.0000       3.279649        89.2438   20-B1
  81   0.0000       3.282475        89.3207   33-A1
  82   0.0000       3.335497        90.7635   10-A2
  83   0.0000       3.335497        90.7635   34-A1
  84   0.0000       3.912717       106.4704   35-A1
  85   0.0000       3.922977       106.7496   11-A2
  86   0.0000       3.922977       106.7496   36-A1
  87   0.0000       3.936681       107.1225   21-B2
  88   0.0000       3.936681       107.1225   21-B1
  89   0.0000       4.008158       109.0675   12-A2
  90   0.0000       4.008158       109.0675   37-A1
  91   0.0000       4.046544       110.1121   22-B2
  92   0.0000       4.046544       110.1121   22-B1
  93   0.0000       4.068671       110.7142   13-A2
  94   0.0000       4.068671       110.7142   38-A1
  95   0.0000       4.100610       111.5833   23-B2
  96   0.0000       4.100610       111.5833   23-B1
  97   0.0000       4.139761       112.6486   39-A1
  98   0.0000       4.331968       117.8788   24-B1
  99   0.0000       4.331968       117.8788   24-B2
 100   0.0000       4.499487       122.4373   40-A1
 101   0.0000       4.524807       123.1263   25-B1
 102   0.0000       4.524807       123.1263   25-B2
 103   0.0000       4.642242       126.3218   14-A2
 104   0.0000       4.642242       126.3218   41-A1
 105   0.0000       5.460445       148.5863   42-A1
 106   0.0000       5.676268       154.4591   43-A1
 107   0.0000       5.834653       158.7690   26-B1
 108   0.0000       5.834653       158.7690   26-B2
 109   0.0000       6.863049       186.7531   27-B2
 110   0.0000       6.863049       186.7531   27-B1
 111   0.0000       7.669750       208.7045   15-A2
 112   0.0000       7.669750       208.7045   44-A1
 113   0.0000       7.931068       215.8153   45-A1
 114   0.0000       7.958400       216.5591   28-B1
 115   0.0000       7.958400       216.5591   28-B2
 116   0.0000       8.643064       235.1897   46-A1
 117   0.0000       9.033887       245.8246   16-A2
 118   0.0000       9.033887       245.8246   47-A1
 119   0.0000       9.245210       251.5750   29-B1
 120   0.0000       9.245210       251.5750   29-B2
 121   0.0000       9.904266       269.5088   30-B2
 122   0.0000       9.904266       269.5088   30-B1
 123   0.0000      10.244480       278.7665   48-A1
 124   0.0000      11.318321       307.9872   49-A1
 125   0.0000      17.655074       480.4190   50-A1

                    ********************************
                    * MULLIKEN POPULATION ANALYSIS *
                    ********************************

-----------------------
MULLIKEN ATOMIC CHARGES
-----------------------
   0 B :    0.026696
   1 H :   -0.026696
Sum of atomic charges:   -0.0000000

--------------------------------
MULLIKEN REDUCED ORBITAL CHARGES
--------------------------------
  0 B s       :     3.795090  s :     3.795090
      pz      :     1.136992  p :     1.136992
      px      :     0.000000
      py      :    -0.000000
      dz2     :     0.038893  d :     0.038893
      dxz     :    -0.000000
      dyz     :     0.000000
      dx2y2   :     0.000000
      dxy     :    -0.000000
      f0      :     0.002065  f :     0.002065
      f+1     :     0.000000
      f-1     :    -0.000000
      f+2     :     0.000000
      f-2     :     0.000000
      f+3     :     0.000000
      f-3     :     0.000000
      g0      :     0.000264  g :     0.000264
      g+1     :     0.000000
      g-1     :     0.000000
      g+2     :     0.000000
      g-2     :     0.000000
      g+3     :     0.000000
      g-3     :     0.000000
      g+4     :     0.000000
      g-4     :     0.000000
  1 H s       :     1.033679  s :     1.033679
      pz      :    -0.004501  p :    -0.004501
      px      :    -0.000000
      py      :     0.000000
      dz2     :    -0.002339  d :    -0.002339
      dxz     :    -0.000000
      dyz     :     0.000000
      dx2y2   :    -0.000000
      dxy     :     0.000000
      f0      :    -0.000143  f :    -0.000143
      f+1     :     0.000000
      f-1     :    -0.000000
      f+2     :     0.000000
      f-2     :     0.000000
      f+3     :     0.000000
      f-3     :     0.000000


                     *******************************
                     * LOEWDIN POPULATION ANALYSIS *
                     *******************************

----------------------
LOEWDIN ATOMIC CHARGES
----------------------
   0 B :    0.608962
   1 H :   -0.608962

-------------------------------
LOEWDIN REDUCED ORBITAL CHARGES
-------------------------------
  0 B s       :     3.092903  s :     3.092903
      pz      :     1.221768  p :     1.221768
      px      :     0.000000
      py      :     0.000000
      dz2     :     0.062545  d :     0.062545
      dxz     :     0.000000
      dyz     :     0.000000
      dx2y2   :     0.000000
      dxy     :     0.000000
      f0      :     0.011066  f :     0.011066
      f+1     :     0.000000
      f-1     :     0.000000
      f+2     :     0.000000
      f-2     :     0.000000
      f+3     :     0.000000
      f-3     :     0.000000
      g0      :     0.002756  g :     0.002756
      g+1     :     0.000000
      g-1     :     0.000000
      g+2     :     0.000000
      g-2     :     0.000000
      g+3     :     0.000000
      g-3     :     0.000000
      g+4     :     0.000000
      g-4     :     0.000000
  1 H s       :     1.101537  s :     1.101537
      pz      :     0.361779  p :     0.361779
      px      :     0.000000
      py      :     0.000000
      dz2     :     0.107455  d :     0.107455
      dxz     :     0.000000
      dyz     :     0.000000
      dx2y2   :     0.000000
      dxy     :     0.000000
      f0      :     0.038191  f :     0.038191
      f+1     :     0.000000
      f-1     :     0.000000
      f+2     :     0.000000
      f-2     :     0.000000
      f+3     :     0.000000
      f-3     :     0.000000


                      *****************************
                      * MAYER POPULATION ANALYSIS *
                      *****************************

  NA   - Mulliken gross atomic population
  ZA   - Total nuclear charge
  QA   - Mulliken gross atomic charge
  VA   - Mayer's total valence
  BVA  - Mayer's bonded valence
  FA   - Mayer's free valence

  ATOM       NA         ZA         QA         VA         BVA        FA
  0 B      4.9733     5.0000     0.0267     0.8230     0.8230    -0.0000
  1 H      1.0267     1.0000    -0.0267     0.8230     0.8230    -0.0000

  Mayer bond orders larger than 0.100000
B(  0-B ,  1-H ) :   0.8230 

-------
TIMINGS
-------

Total SCF time: 0 days 0 hours 0 min 2 sec 

Total time                  ....       2.285 sec
Sum of individual times     ....       2.124 sec  ( 93.0%)

Fock matrix formation       ....       2.017 sec  ( 88.3%)
Diagonalization             ....       0.019 sec  (  0.8%)
Density matrix formation    ....       0.001 sec  (  0.0%)
Population analysis         ....       0.004 sec  (  0.2%)
Initial guess               ....       0.053 sec  (  2.3%)
Orbital Transformation      ....       0.000 sec  (  0.0%)
Orbital Orthonormalization  ....       0.000 sec  (  0.0%)
DIIS solution               ....       0.010 sec  (  0.5%)
SOSCF solution              ....       0.013 sec  (  0.6%)

Maximum memory used throughout the entire SCF-calculation: 228.6 MB
[cnode04:423345] 7 more processes have sent help message help-mpi-btl-openib.txt / error in device init
[cnode04:423345] Set MCA parameter "orte_base_help_aggregate" to 0 to see all help / error messages

-------------------------   --------------------
FINAL SINGLE POINT ENERGY       -25.103665467923
-------------------------   --------------------


                            ***************************************
                            *     ORCA property calculations      *
                            ***************************************

                                    ---------------------
                                    Active property flags
                                    ---------------------
   (+) Dipole Moment


------------------------------------------------------------------------------
                       ORCA ELECTRIC PROPERTIES CALCULATION
------------------------------------------------------------------------------

Dipole Moment Calculation                       ... on
Quadrupole Moment Calculation                   ... off
Polarizability Calculation                      ... off
GBWName                                         ... /scratch/BH-1.0-O_874/BH-1.0-O.gbw
Electron density file                           ... /scratch/BH-1.0-O_874/BH-1.0-O.scfp
The origin for moment calculation is the CENTER OF MASS  = ( 0.000000,  0.000000  0.000000)

-------------
DIPOLE MOMENT
-------------
                                X             Y             Z
Electronic contribution:     -0.00000       0.00000      -0.00358
Nuclear contribution   :      0.00000       0.00000       0.92264
                        -----------------------------------------
Total Dipole Moment    :     -0.00000       0.00000       0.91905
                        -----------------------------------------
Magnitude (a.u.)       :      0.91905
Magnitude (Debye)      :      2.33605



--------------------
Rotational spectrum 
--------------------
 
Rotational constants in cm-1:     0.000000    18.283303    18.283303 
Rotational constants in MHz :     0.000000 548119.639641 548119.639641 

 Dipole components along the rotational axes: 
x,y,z [a.u.] :     0.919053     0.000000    -0.000000 
x,y,z [Debye]:     2.336046     0.000000    -0.000000 

 
--------------------------------------------------------------------------
WARNING: There was an error initializing an OpenFabrics device.

  Local host:   cnode04
  Local device: mlx5_0
--------------------------------------------------------------------------
[cnode04:423540] 7 more processes have sent help message help-mpi-btl-openib.txt / error in device init
[cnode04:423540] Set MCA parameter "orte_base_help_aggregate" to 0 to see all help / error messages

Timings for individual modules:

Sum of individual times         ...        3.195 sec (=   0.053 min)
GTO integral calculation        ...        0.531 sec (=   0.009 min)  16.6 %
SCF iterations                  ...        2.664 sec (=   0.044 min)  83.4 %
                             ****ORCA TERMINATED NORMALLY****
TOTAL RUN TIME: 0 days 0 hours 0 minutes 3 seconds 649 msec

Sender: Unischeduler System <lcz@mgt01>
Subject: Job 133487: <#!/bin/bash
#BSUB -J intel
#BSUB -o BH-1.0-O.out
#BSUB -n 8
#BSUB -q cqueue
export LD_LIBRARY_PATH=/apps/software/openmpi-4.1.1/lib:/apps/software/orca_5_0_0:$LD_LIBRARY_PATH
export PATH=/apps/software/openmpi-4.1.1/bin:/apps/software/orca_5_0_0:$PATH
mkdir /scratch/BH-1.0-O_874
scp $USER@mgt01:/apps/users/lcz/exe13/RHF/BH-1.0-O.inp /scratch/BH-1.0-O_874
/apps/software/orca_5_0_0/orca /scratch/BH-1.0-O_874/BH-1.0-O.inp >& BH-1.0-O.out
scp /scratch/BH-1.0-O_874/*.gbw $USER@mgt01:/apps/users/lcz/exe13/RHF
scp /scratch/BH-1.0-O_874/*.xyz $USER@mgt01:/apps/users/lcz/exe13/RHF
scp /scratch/BH-1.0-O_874/*.trj $USER@mgt01:/apps/users/lcz/exe13/RHF> Exited

Job <#!/bin/bash
#BSUB -J intel
#BSUB -o BH-1.0-O.out
#BSUB -n 8
#BSUB -q cqueue
export LD_LIBRARY_PATH=/apps/software/openmpi-4.1.1/lib:/apps/software/orca_5_0_0:$LD_LIBRARY_PATH
export PATH=/apps/software/openmpi-4.1.1/bin:/apps/software/orca_5_0_0:$PATH
mkdir /scratch/BH-1.0-O_874
scp $USER@mgt01:/apps/users/lcz/exe13/RHF/BH-1.0-O.inp /scratch/BH-1.0-O_874
/apps/software/orca_5_0_0/orca /scratch/BH-1.0-O_874/BH-1.0-O.inp >& BH-1.0-O.out
scp /scratch/BH-1.0-O_874/*.gbw $USER@mgt01:/apps/users/lcz/exe13/RHF
scp /scratch/BH-1.0-O_874/*.xyz $USER@mgt01:/apps/users/lcz/exe13/RHF
scp /scratch/BH-1.0-O_874/*.trj $USER@mgt01:/apps/users/lcz/exe13/RHF> was submitted from host <mgt01> by user <lcz>.
Job was executed on host(s) <8*cnode04>, in queue <cqueue>, as user <lcz>.
</apps/users/lcz> was used as the home directory.
</apps/users/lcz/exe13/RHF> was used as the working directory.
Started at 2022-05-21 17:11:40
Results reported at 2022-05-21 17:11:45

Your job looked like:

------------------------------------------------------------
# User input
#!/bin/bash
#BSUB -J intel
#BSUB -o BH-1.0-O.out
#BSUB -n 8
#BSUB -q cqueue
export LD_LIBRARY_PATH=/apps/software/openmpi-4.1.1/lib:/apps/software/orca_5_0_0:$LD_LIBRARY_PATH
export PATH=/apps/software/openmpi-4.1.1/bin:/apps/software/orca_5_0_0:$PATH
mkdir /scratch/BH-1.0-O_874
scp $USER@mgt01:/apps/users/lcz/exe13/RHF/BH-1.0-O.inp /scratch/BH-1.0-O_874
/apps/software/orca_5_0_0/orca /scratch/BH-1.0-O_874/BH-1.0-O.inp >& BH-1.0-O.out
scp /scratch/BH-1.0-O_874/*.gbw $USER@mgt01:/apps/users/lcz/exe13/RHF
scp /scratch/BH-1.0-O_874/*.xyz $USER@mgt01:/apps/users/lcz/exe13/RHF
scp /scratch/BH-1.0-O_874/*.trj $USER@mgt01:/apps/users/lcz/exe13/RHF
------------------------------------------------------------

Exited with exit code 1.

Resource usage summary:

    Max Memory :                 0 MB
    Max Processes  :               1


The output (if any) follows:

/scratch/BH-1.0-O_874/*.xyz: No such file or directory
/scratch/BH-1.0-O_874/*.trj: No such file or directory
