
                                        *****************
                                        * O   R   C   A *
                                        *****************

                                            #,                                       
                                            ###                                      
                                            ####                                     
                                            #####                                    
                                            ######                                   
                                           ########,                                 
                                     ,,################,,,,,                         
                               ,,#################################,,                 
                          ,,##########################################,,             
                       ,#########################################, ''#####,          
                    ,#############################################,,   '####,        
                  ,##################################################,,,,####,       
                ,###########''''           ''''###############################       
              ,#####''   ,,,,##########,,,,          '''####'''          '####       
            ,##' ,,,,###########################,,,                        '##       
           ' ,,###''''                  '''############,,,                           
         ,,##''                                '''############,,,,        ,,,,,,###''
      ,#''                                            '''#######################'''  
     '                                                          ''''####''''         
             ,#######,   #######,   ,#######,      ##                                
            ,#'     '#,  ##    ##  ,#'     '#,    #''#        ######   ,####,        
            ##       ##  ##   ,#'  ##            #'  '#       #        #'  '#        
            ##       ##  #######   ##           ,######,      #####,   #    #        
            '#,     ,#'  ##    ##  '#,     ,#' ,#      #,         ##   #,  ,#        
             '#######'   ##     ##  '#######'  #'      '#     #####' # '####'        



                  #######################################################
                  #                        -***-                        #
                  #          Department of theory and spectroscopy      #
                  #    Directorship and core code : Frank Neese         #
                  #        Max Planck Institute fuer Kohlenforschung    #
                  #                Kaiser Wilhelm Platz 1               #
                  #                 D-45470 Muelheim/Ruhr               #
                  #                      Germany                        #
                  #                                                     #
                  #                  All rights reserved                #
                  #                        -***-                        #
                  #######################################################


                         Program Version 5.0.0 -  RELEASE  -
                                (SVN: $Rev: 19529$)
                ($Date: 2021-06-28 11:36:33 +0200 (Mo, 28 Jun 2021) $)


 With contributions from (in alphabetic order):
   Daniel Aravena         : Magnetic Suceptibility
   Michael Atanasov       : Ab Initio Ligand Field Theory (pilot matlab implementation)
   Alexander A. Auer      : GIAO ZORA, VPT2 properties, NMR spectrum
   Ute Becker             : Parallelization
   Giovanni Bistoni       : ED, misc. LED, open-shell LED, HFLD
   Martin Brehm           : Molecular dynamics
   Dmytro Bykov           : SCF Hessian
   Vijay G. Chilkuri      : MRCI spin determinant printing, contributions to CSF-ICE
   Dipayan Datta          : RHF DLPNO-CCSD density
   Achintya Kumar Dutta   : EOM-CC, STEOM-CC
   Dmitry Ganyushin       : Spin-Orbit,Spin-Spin,Magnetic field MRCI
   Miquel Garcia          : C-PCM Hessian, Gaussian charge scheme
   Yang Guo               : DLPNO-NEVPT2, F12-NEVPT2, CIM, IAO-localization
   Andreas Hansen         : Spin unrestricted coupled pair/coupled cluster methods
   Benjamin Helmich-Paris : MC-RPA, TRAH-SCF, COSX integrals
   Lee Huntington         : MR-EOM, pCC
   Robert Izsak           : Overlap fitted RIJCOSX, COSX-SCS-MP3, EOM
   Marcus Kettner         : VPT2
   Christian Kollmar      : KDIIS, OOCD, Brueckner-CCSD(T), CCSD density, CASPT2, CASPT2-K
   Simone Kossmann        : Meta GGA functionals, TD-DFT gradient, OOMP2, MP2 Hessian
   Martin Krupicka        : Initial AUTO-CI
   Lucas Lang             : DCDCAS
   Marvin Lechner         : AUTO-CI (C++ implementation), FIC-MRCC
   Dagmar Lenk            : GEPOL surface, SMD
   Dimitrios Liakos       : Extrapolation schemes; Compound Job, initial MDCI parallelization
   Dimitrios Manganas     : Further ROCIS development; embedding schemes
   Dimitrios Pantazis     : SARC Basis sets
   Anastasios Papadopoulos: AUTO-CI, single reference methods and gradients
   Taras Petrenko         : DFT Hessian,TD-DFT gradient, ASA, ECA, R-Raman, ABS, FL, XAS/XES, NRVS
   Peter Pinski           : DLPNO-MP2, DLPNO-MP2 Gradient
   Christoph Reimann      : Effective Core Potentials
   Marius Retegan         : Local ZFS, SOC
   Christoph Riplinger    : Optimizer, TS searches, QM/MM, DLPNO-CCSD(T), (RO)-DLPNO pert. Triples
   Tobias Risthaus        : Range-separated hybrids, TD-DFT gradient, RPA, STAB
   Michael Roemelt        : Original ROCIS implementation
   Masaaki Saitow         : Open-shell DLPNO-CCSD energy and density
   Barbara Sandhoefer     : DKH picture change effects
   Avijit Sen             : IP-ROCIS
   Kantharuban Sivalingam : CASSCF convergence, NEVPT2, FIC-MRCI
   Bernardo de Souza      : ESD, SOC TD-DFT
   Georgi Stoychev        : AutoAux, RI-MP2 NMR
   Willem Van den Heuvel  : Paramagnetic NMR
   Boris Wezisla          : Elementary symmetry handling
   Frank Wennmohs         : Technical directorship


 We gratefully acknowledge several colleagues who have allowed us to
 interface, adapt or use parts of their codes:
   Stefan Grimme, W. Hujo, H. Kruse, P. Pracht,  : VdW corrections, initial TS optimization,
                  C. Bannwarth, S. Ehlert          DFT functionals, gCP, sTDA/sTD-DF
   Ed Valeev, F. Pavosevic, A. Kumar             : LibInt (2-el integral package), F12 methods
   Garnet Chan, S. Sharma, J. Yang, R. Olivares  : DMRG
   Ulf Ekstrom                                   : XCFun DFT Library
   Mihaly Kallay                                 : mrcc  (arbitrary order and MRCC methods)
   Jiri Pittner, Ondrej Demel                    : Mk-CCSD
   Frank Weinhold                                : gennbo (NPA and NBO analysis)
   Christopher J. Cramer and Donald G. Truhlar   : smd solvation model
   Lars Goerigk                                  : TD-DFT with DH, B97 family of functionals
   V. Asgeirsson, H. Jonsson                     : NEB implementation
   FAccTs GmbH                                   : IRC, NEB, NEB-TS, DLPNO-Multilevel, CI-OPT
                                                   MM, QMMM, 2- and 3-layer-ONIOM, Crystal-QMMM,
                                                   LR-CPCM, SF, NACMEs, symmetry and pop. for TD-DFT,
                                                   nearIR, NL-DFT gradient (VV10), updates on ESD,
                                                   ML-optimized integration grids
   S Lehtola, MJT Oliveira, MAL Marques          : LibXC Library
   Liviu Ungur et al                             : ANISO software


 Your calculation uses the libint2 library for the computation of 2-el integrals
 For citations please refer to: http://libint.valeyev.net

 Your ORCA version has been built with support for libXC version: 5.1.0
 For citations please refer to: https://tddft.org/programs/libxc/

 This ORCA versions uses:
   CBLAS   interface :  Fast vector & matrix operations
   LAPACKE interface :  Fast linear algebra routines
   SCALAPACK package :  Parallel linear algebra routines
   Shared memory     :  Shared parallel matrices
   BLAS/LAPACK       :  OpenBLAS 0.3.15  USE64BITINT DYNAMIC_ARCH NO_AFFINITY SkylakeX SINGLE_THREADED
        Core in use  :  SkylakeX
   Copyright (c) 2011-2014, The OpenBLAS Project


================================================================================

----- Orbital basis set information -----
Your calculation utilizes the basis: aug-cc-pVQZ 
    H, B-Ne : Obtained from the ccRepo (grant-hill.group.shef.ac.uk/ccrepo) Feb. 2017
              R. A. Kendall, T. H. Dunning, Jr., R. J. Harrison, J. Chem. Phys. 96, 6796 (1992)
         He : Obtained from the ccRepo (grant-hill.group.shef.ac.uk/ccrepo) Feb. 2017
              D. E. Woon, T. H. Dunning, Jr., J. Chem. Phys. 100, 2975 (1994)
  Li-Be, Na : Obtained from the ccRepo (grant-hill.group.shef.ac.uk/ccrepo) Feb. 2017
              B. P. Prascher, D. E. Woon, K. A. Peterson, T. H. Dunning, Jr., A. K. Wilson, Theor. Chem. Acc. 128, 69 (2011)
         Mg : Obtained from the Peterson Research Group Website (tyr0.chem.wsu.edu/~kipeters) Feb. 2017
              B. P. Prascher, D. E. Woon, K. A. Peterson, T. H. Dunning, Jr., A. K. Wilson, Theor. Chem. Acc. 128, 69 (2011)
      Al-Ar : Obtained from the ccRepo (grant-hill.group.shef.ac.uk/ccrepo) Feb. 2017
              D. E. Woon, T. H. Dunning, Jr., J. Chem. Phys. 98, 1358 (1993)
      Sc-Zn : Obtained from the ccRepo (grant-hill.group.shef.ac.uk/ccrepo) Feb. 2017
              N. B. Balabanov, K. A. Peterson, J. Chem. Phys. 123, 064107 (2005)
              N. B. Balabanov, K. A. Peterson, J. Chem. Phys. 125, 074110 (2006)
      Ga-Kr : Obtained from the ccRepo (grant-hill.group.shef.ac.uk/ccrepo) Feb. 2017
              A. K. Wilson, D. E. Woon, K. A. Peterson, T. H. Dunning, Jr., J. Chem. Phys. 110, 7667 (1999)

================================================================================
                                        WARNINGS
                       Please study these warnings very carefully!
================================================================================


INFO   : the flag for use of the SHARK integral package has been found!

================================================================================
                                       INPUT FILE
================================================================================
NAME = /scratch/BH-1.3-O_157/BH-1.3-O.inp
|  1> ! RHF aug-cc-pVQZ pal8 VeryTightSCF UseSym
|  2> 
|  3> *xyz 0 1
|  4>  B	0.0	0.0	0.0
|  5>  H	1.3	0.0	0.0
|  6> **                         ****END OF INPUT****
================================================================================

------------------------------------------------------------------------------
                            SYMMETRY HANDLING SETUP
------------------------------------------------------------------------------

------------------
SYMMETRY DETECTION
------------------
The point group will now be determined using a tolerance of 1.0000e-04.
Splitting atom subsets according to nuclear charge, mass and basis set.
Splitting atom subsets according to distance from the molecule's center.
Identifying relative distance patterns of the atoms.
Splitting atom subsets according to atoms' relative distance patterns.
Bring atoms of each subset into input order.
The molecule is linear.
There is at least one atom subset not centered around the molecule's center.
The molecule does not have a center of inversion.
No further test is needed for point group Cinfv.
This point group has been found:    Cinfv
Largest non-degenerate subgroup:    C2v


Mass-centered symmetry-perfected Cartesians (point groups Cinfv and C2v):

Atom          Symmetry-perfected Cartesians (x, y, z; au)
  0       0.000000000000    0.000000000000   -0.209536057361
  1       0.000000000000    0.000000000000    2.247107916737


-----------------------------------------------
SYMMETRY-PERFECTED CARTESIAN COORDINATES (A.U.)
-----------------------------------------------
Warning (ORCA_SYM): Coordinates were not cleaned so far!

------------------
SYMMETRY REDUCTION
------------------
ORCA supports only abelian point groups.
It is now checked, if the determined point group is supported:
Point Group ( C2v   ) is          ... supported

(Re)building abelian point group:
Creating Character Table          ... done
Making direct product table       ... done
Constructing symmetry operations  ... done
Creating atom transfer table      ... done
Creating asymmetric unit          ... done

----------------------
ASYMMETRIC UNIT IN C2v
----------------------
  #  AT     MASS              COORDS (A.U.)             BAS
   0 B   10.8100   0.00000000   0.00000000  -0.20953606   0
   1 H    1.0080   0.00000000   0.00000000   2.24710792   0

----------------------
SYMMETRY ADAPTED BASIS
----------------------
The coefficients for the symmetry adapted linear combinations (SALCS)
of basis functions will now be computed:
Number of basis functions         ...   126
Preparing memory                  ... done
Constructing Gamma(red)           ... done
Reducing Gamma(red)               ... done
Constructing SALCs                ... done
Checking SALC integrity           ... nothing suspicious
Normalizing SALCs                 ... done

Storing the symmetry object:
Symmetry file                     ... /scratch/BH-1.3-O_157/BH-1.3-O.sym.tmp
Writing symmetry information      ... done

                       ****************************
                       * Single Point Calculation *
                       ****************************

---------------------------------
CARTESIAN COORDINATES (ANGSTROEM)
---------------------------------
  B      0.000000    0.000000   -0.110882
  H      0.000000    0.000000    1.189118

----------------------------
CARTESIAN COORDINATES (A.U.)
----------------------------
  NO LB      ZA    FRAG     MASS         X           Y           Z
   0 B     5.0000    0    10.810    0.000000    0.000000   -0.209536
   1 H     1.0000    0     1.008    0.000000    0.000000    2.247108

--------------------------------
INTERNAL COORDINATES (ANGSTROEM)
--------------------------------
 B      0   0   0     0.000000000000     0.00000000     0.00000000
 H      1   0   0     1.300000000000     0.00000000     0.00000000

---------------------------
INTERNAL COORDINATES (A.U.)
---------------------------
 B      0   0   0     0.000000000000     0.00000000     0.00000000
 H      1   0   0     2.456643974098     0.00000000     0.00000000

---------------------
BASIS SET INFORMATION
---------------------
There are 2 groups of distinct atoms

 Group   1 Type B   : 22s7p4d3f2g contracted to 6s5p4d3f2g pattern {991111/31111/1111/111/11}
 Group   2 Type H   : 7s4p3d2f contracted to 5s4p3d2f pattern {31111/1111/111/11}

Atom   0B    basis set group =>   1
Atom   1H    basis set group =>   2
--------------------------------------------------------------------------
WARNING: There was an error initializing an OpenFabrics device.

  Local host:   cnode04
  Local device: mlx5_0
--------------------------------------------------------------------------


           ************************************************************
           *        Program running with 8 parallel MPI-processes     *
           *              working on a common directory               *
           ************************************************************
------------------------------------------------------------------------------
                           ORCA GTO INTEGRAL CALCULATION
------------------------------------------------------------------------------
------------------------------------------------------------------------------
                   ___                                                        
                  /   \      - P O W E R E D   B Y -                         
                 /     \                                                     
                 |  |  |   _    _      __       _____    __    __             
                 |  |  |  | |  | |    /  \     |  _  \  |  |  /  |          
                  \  \/   | |  | |   /    \    | | | |  |  | /  /          
                 / \  \   | |__| |  /  /\  \   | |_| |  |  |/  /          
                |  |  |   |  __  | /  /__\  \  |    /   |      \           
                |  |  |   | |  | | |   __   |  |    \   |  |\   \          
                \     /   | |  | | |  |  |  |  | |\  \  |  | \   \       
                 \___/    |_|  |_| |__|  |__|  |_| \__\ |__|  \__/        
                                                                              
                      - O R C A' S   B I G   F R I E N D -                    
                                      &                                       
                       - I N T E G R A L  F E E D E R -                       
                                                                              
 v1 FN, 2020, v2 2021                                                         
------------------------------------------------------------------------------


Reading SHARK input file /scratch/BH-1.3-O_157/BH-1.3-O.SHARKINP.tmp ... ok
----------------------
SHARK INTEGRAL PACKAGE
----------------------

Number of atoms                             ...      2
Number of basis functions                   ...    126
Number of shells                            ...     34
Maximum angular momentum                    ...      4
Integral batch strategy                     ... SHARK/LIBINT Hybrid
RI-J (if used) integral strategy            ... SPLIT-RIJ (Revised 2003 algorithm where possible)
Printlevel                                  ...      1
Contraction scheme used                     ... SEGMENTED contraction
Coulomb Range Separation                    ... NOT USED
Exchange Range Separation                   ... NOT USED
Finite Nucleus Model                        ... NOT USED
Auxiliary Coulomb fitting basis             ... NOT available
Auxiliary J/K fitting basis                 ... NOT available
Auxiliary Correlation fitting basis         ... NOT available
Auxiliary 'external' fitting basis          ... NOT available
Integral threshold                          ...     1.000000e-12
Primitive cut-off                           ...     1.000000e-14
Primitive pair pre-selection threshold      ...     1.000000e-14

Calculating pre-screening integrals         ... done (  0.1 sec) Dimension = 34
Organizing shell pair data                  ... done (  0.0 sec)
Shell pair information
Total number of shell pairs                 ...       595
Shell pairs after pre-screening             ...       595
Total number of primitive shell pairs       ...      1563
Primitive shell pairs kept                  ...      1535
          la=0 lb=0:     66 shell pairs
          la=1 lb=0:     99 shell pairs
          la=1 lb=1:     45 shell pairs
          la=2 lb=0:     77 shell pairs
          la=2 lb=1:     63 shell pairs
          la=2 lb=2:     28 shell pairs
          la=3 lb=0:     55 shell pairs
          la=3 lb=1:     45 shell pairs
          la=3 lb=2:     35 shell pairs
          la=3 lb=3:     15 shell pairs
          la=4 lb=0:     22 shell pairs
          la=4 lb=1:     18 shell pairs
          la=4 lb=2:     14 shell pairs
          la=4 lb=3:     10 shell pairs
          la=4 lb=4:      3 shell pairs

Calculating one electron integrals          ... done (  0.0 sec)
Calculating Nuclear repulsion               ... done (  0.0 sec) ENN=      2.035296955000 Eh

SHARK setup successfully completed in   0.1 seconds

Maximum memory used throughout the entire GTOINT-calculation: 28.9 MB
[cnode04:423912] 7 more processes have sent help message help-mpi-btl-openib.txt / error in device init
[cnode04:423912] Set MCA parameter "orte_base_help_aggregate" to 0 to see all help / error messages
--------------------------------------------------------------------------
WARNING: There was an error initializing an OpenFabrics device.

  Local host:   cnode04
  Local device: mlx5_0
--------------------------------------------------------------------------


           ************************************************************
           *        Program running with 8 parallel MPI-processes     *
           *              working on a common directory               *
           ************************************************************
-------------------------------------------------------------------------------
                                 ORCA SCF
-------------------------------------------------------------------------------

------------
SCF SETTINGS
------------
Hamiltonian:
 Ab initio Hamiltonian  Method          .... Hartree-Fock(GTOs)


General Settings:
 Integral files         IntName         .... /scratch/BH-1.3-O_157/BH-1.3-O
 Hartree-Fock type      HFTyp           .... RHF
 Total Charge           Charge          ....    0
 Multiplicity           Mult            ....    1
 Number of Electrons    NEL             ....    6
 Basis Dimension        Dim             ....  126
 Nuclear Repulsion      ENuc            ....      2.0352969550 Eh

 Symmetry handling      UseSym         .... ON
 Point group                           .... C2v
 Used point group                      .... C2v
 Number of irreps                      .... 4
   Irrep   A1 has   50 symmetry adapted basis functions (ofs=   0)
   Irrep   A2 has   16 symmetry adapted basis functions (ofs=  50)
   Irrep   B1 has   30 symmetry adapted basis functions (ofs=  66)
   Irrep   B2 has   30 symmetry adapted basis functions (ofs=  96)

Convergence Acceleration:
 DIIS                   CNVDIIS         .... on
   Start iteration      DIISMaxIt       ....    12
   Startup error        DIISStart       ....  0.200000
   # of expansion vecs  DIISMaxEq       ....     5
   Bias factor          DIISBfac        ....   1.050
   Max. coefficient     DIISMaxC        ....  10.000
 Trust-Rad. Augm. Hess. CNVTRAH         .... auto
   Auto Start mean grad. ratio tolernc. ....  1.125000
   Auto Start start iteration           ....    20
   Auto Start num. interpolation iter.  ....    10
   Max. Number of Micro iterations      ....    16
   Max. Number of Macro iterations      .... Maxiter - #DIIS iter
   Number of Davidson start vectors     ....     2
   Converg. threshold I  (grad. norm)   ....   2.000e-06
   Converg. threshold II (energy diff.) ....   1.000e-09
   Grad. Scal. Fac. for Micro threshold ....   0.100
   Minimum threshold for Micro iter.    ....   0.010
   NR start threshold (gradient norm)   ....   0.001
   Initial trust radius                 ....   0.400
   Minimum AH scaling param. (alpha)    ....   1.000
   Maximum AH scaling param. (alpha)    .... 1000.000
   Orbital update algorithm             .... Taylor
   White noise on init. David. guess    .... on
   Maximum white noise                  ....   0.010
   Quad. conv. algorithm                .... NR
 SOSCF                  CNVSOSCF        .... on
   Start iteration      SOSCFMaxIt      ....   150
   Startup grad/error   SOSCFStart      ....  0.003300
 Level Shifting         CNVShift        .... on
   Level shift para.    LevelShift      ....    0.2500
   Turn off err/grad.   ShiftErr        ....    0.0010
 Zerner damping         CNVZerner       .... off
 Static damping         CNVDamp         .... on
   Fraction old density DampFac         ....    0.7000
   Max. Damping (<1)    DampMax         ....    0.9800
   Min. Damping (>=0)   DampMin         ....    0.0000
   Turn off err/grad.   DampErr         ....    0.1000
 Fernandez-Rico         CNVRico         .... off

SCF Procedure:
 Maximum # iterations   MaxIter         ....   125
 SCF integral mode      SCFMode         .... Direct
   Integral package                     .... SHARK and LIBINT hybrid scheme
 Reset frequency        DirectResetFreq ....    20
 Integral Threshold     Thresh          ....  1.000e-12 Eh
 Primitive CutOff       TCut            ....  1.000e-14 Eh

Convergence Tolerance:
 Convergence Check Mode ConvCheckMode   .... Total+1el-Energy
 Convergence forced     ConvForced      .... 0
 Energy Change          TolE            ....  1.000e-09 Eh
 1-El. energy change                    ....  1.000e-06 Eh
 Orbital Gradient       TolG            ....  2.000e-06
 Orbital Rotation angle TolX            ....  2.000e-06
 DIIS Error             TolErr          ....  1.000e-08


Diagonalization of the overlap matrix:
Smallest eigenvalue                        ... 1.362e-04
Time for diagonalization                   ...    0.002 sec
Threshold for overlap eigenvalues          ... 1.000e-08
Number of eigenvalues below threshold      ... 0
Time for construction of square roots      ...    0.002 sec
Producing symmetrization matrix            ... done (   0.000 sec)
Total time needed                          ...    0.004 sec

Time for model grid setup =    0.007 sec

------------------------------
INITIAL GUESS: MODEL POTENTIAL
------------------------------
Loading Hartree-Fock densities                     ... done
Calculating cut-offs                               ... done
Initializing the effective Hamiltonian             ... done
Setting up the integral package (SHARK)            ... done
Starting the Coulomb interaction                   ... done (   0.0 sec)
Reading the grid                                   ... done
Mapping shells                                     ... done
Starting the XC term evaluation                    ... done (   0.0 sec)
done (   0.0 sec)
Diagonalizing the Hamiltonian                      ... done (   0.0 sec)
Back transforming the eigenvectors                 ... done (   0.0 sec)
Now organizing SCF variables                       ... done
The symmetry of the initial guess is 1-A1
Irrep occupations for operator 0
    A1 -    3
    A2 -    0
    B1 -    0
    B2 -    0
                      ------------------
                      INITIAL GUESS DONE (   0.0 sec)
                      ------------------
--------------
SCF ITERATIONS
--------------
ITER       Energy         Delta-E        Max-DP      RMS-DP      [F,P]     Damp
               ***  Starting incremental Fock matrix formation  ***
  0    -25.1201659490   0.000000000000 0.03408529  0.00044769  0.1046326 0.7000
  1    -25.1226137645  -0.002447815462 0.02441683  0.00034902  0.0764534 0.7000
                               ***Turning on DIIS***
  2    -25.1244650478  -0.001851283360 0.05764688  0.00086718  0.0554238 0.0000
  3    -25.1329025493  -0.008437501482 0.00834006  0.00012540  0.0050559 0.0000
                      *** Initiating the SOSCF procedure ***
                           *** Shutting down DIIS ***
                      *** Re-Reading the Fockian *** 
                      *** Removing any level shift *** 
ITER      Energy       Delta-E        Grad      Rot      Max-DP    RMS-DP
  4    -25.12948301   0.0034195388  0.000785  0.000785  0.002060  0.000042
               *** Restarting incremental Fock matrix formation ***
  5    -25.12926118   0.0002218285  0.000202  0.000331  0.002413  0.000041
  6    -25.12926212  -0.0000009375  0.000055  0.000160  0.001241  0.000020
  7    -25.12926222  -0.0000001039  0.000008  0.000017  0.000058  0.000001
  8    -25.12926222  -0.0000000013  0.000003  0.000011  0.000026  0.000000
                 **** Energy Check signals convergence ****
              ***Rediagonalizing the Fockian in SOSCF/NRSCF***

               *****************************************************
               *                     SUCCESS                       *
               *           SCF CONVERGED AFTER   9 CYCLES          *
               *****************************************************


----------------
TOTAL SCF ENERGY
----------------

Total Energy       :          -25.12926223 Eh            -683.80199 eV

Components:
Nuclear Repulsion  :            2.03529696 Eh              55.38325 eV
Electronic Energy  :          -27.16455918 Eh            -739.18523 eV
One Electron Energy:          -36.97475383 Eh           -1006.13420 eV
Two Electron Energy:            9.81019465 Eh             266.94897 eV

Virial components:
Potential Energy   :          -50.19164497 Eh           -1365.78409 eV
Kinetic Energy     :           25.06238274 Eh             681.98211 eV
Virial Ratio       :            2.00266852


---------------
SCF CONVERGENCE
---------------

  Last Energy change         ...   -2.6047e-10  Tolerance :   1.0000e-09
  Last MAX-Density change    ...    3.0854e-06  Tolerance :   1.0000e-08
  Last RMS-Density change    ...    4.8589e-08  Tolerance :   1.0000e-09
  Last Orbital Gradient      ...    2.5316e-07  Tolerance :   2.0000e-06
  Last Orbital Rotation      ...    4.7313e-07  Tolerance :   2.0000e-06

             **** THE GBW FILE WAS UPDATED (/scratch/BH-1.3-O_157/BH-1.3-O.gbw) ****
             **** DENSITY /scratch/BH-1.3-O_157/BH-1.3-O.scfp WAS UPDATED ****
             **** ENERGY FILE WAS UPDATED (/scratch/BH-1.3-O_157/BH-1.3-O.en.tmp) ****
             **** THE GBW FILE WAS UPDATED (/scratch/BH-1.3-O_157/BH-1.3-O.gbw) ****
             **** DENSITY /scratch/BH-1.3-O_157/BH-1.3-O.scfp WAS UPDATED ****
----------------
ORBITAL ENERGIES
----------------

  NO   OCC          E(Eh)            E(eV)    Irrep 
   0   2.0000      -7.694649      -209.3821    1-A1
   1   2.0000      -0.632546       -17.2125    2-A1
   2   2.0000      -0.349987        -9.5236    3-A1
   3   0.0000       0.023613         0.6425    1-B2
   4   0.0000       0.023613         0.6425    1-B1
   5   0.0000       0.031441         0.8556    4-A1
   6   0.0000       0.045877         1.2484    5-A1
   7   0.0000       0.078071         2.1244    2-B1
   8   0.0000       0.078071         2.1244    2-B2
   9   0.0000       0.109180         2.9709    6-A1
  10   0.0000       0.136188         3.7059    3-B2
  11   0.0000       0.136188         3.7059    3-B1
  12   0.0000       0.145197         3.9510    7-A1
  13   0.0000       0.145197         3.9510    1-A2
  14   0.0000       0.149954         4.0805    8-A1
  15   0.0000       0.192002         5.2246    9-A1
  16   0.0000       0.258445         7.0327   10-A1
  17   0.0000       0.272208         7.4072    4-B2
  18   0.0000       0.272208         7.4072    4-B1
  19   0.0000       0.313729         8.5370    5-B1
  20   0.0000       0.313729         8.5370    5-B2
  21   0.0000       0.388066        10.5598   11-A1
  22   0.0000       0.403408        10.9773   12-A1
  23   0.0000       0.456322        12.4171   13-A1
  24   0.0000       0.456322        12.4171    2-A2
  25   0.0000       0.460747        12.5376    6-B2
  26   0.0000       0.460747        12.5376    6-B1
  27   0.0000       0.482788        13.1373    7-B2
  28   0.0000       0.482788        13.1373    7-B1
  29   0.0000       0.499764        13.5993    3-A2
  30   0.0000       0.499764        13.5993   14-A1
  31   0.0000       0.534346        14.5403   15-A1
  32   0.0000       0.542920        14.7736   16-A1
  33   0.0000       0.585038        15.9197    8-B2
  34   0.0000       0.585038        15.9197    8-B1
  35   0.0000       0.746046        20.3010   17-A1
  36   0.0000       0.781736        21.2721    9-B2
  37   0.0000       0.781736        21.2721    9-B1
  38   0.0000       0.802491        21.8369   18-A1
  39   0.0000       0.802491        21.8369    4-A2
  40   0.0000       0.833196        22.6724   19-A1
  41   0.0000       1.025143        27.8956   10-B2
  42   0.0000       1.025143        27.8956   10-B1
  43   0.0000       1.140265        31.0282   20-A1
  44   0.0000       1.194717        32.5099   11-B2
  45   0.0000       1.194717        32.5099   11-B1
  46   0.0000       1.353841        36.8399   21-A1
  47   0.0000       1.366361        37.1806   12-B2
  48   0.0000       1.366361        37.1806   12-B1
  49   0.0000       1.368260        37.2322    5-A2
  50   0.0000       1.368260        37.2322   22-A1
  51   0.0000       1.383187        37.6384   23-A1
  52   0.0000       1.383187        37.6384    6-A2
  53   0.0000       1.437879        39.1267   13-B2
  54   0.0000       1.437879        39.1267   13-B1
  55   0.0000       1.441006        39.2118   24-A1
  56   0.0000       1.448022        39.4027   14-B2
  57   0.0000       1.448022        39.4027   14-B1
  58   0.0000       1.458351        39.6838   25-A1
  59   0.0000       1.458351        39.6838    7-A2
  60   0.0000       1.548964        42.1495   26-A1
  61   0.0000       1.578552        42.9546   15-B2
  62   0.0000       1.578552        42.9546   15-B1
  63   0.0000       1.618612        44.0447   27-A1
  64   0.0000       1.618612        44.0447    8-A2
  65   0.0000       1.702621        46.3307   28-A1
  66   0.0000       1.852536        50.4101   16-B2
  67   0.0000       1.852536        50.4101   16-B1
  68   0.0000       1.869400        50.8689   17-B2
  69   0.0000       1.869400        50.8689   17-B1
  70   0.0000       1.925312        52.3904   29-A1
  71   0.0000       2.075274        56.4711   30-A1
  72   0.0000       2.075274        56.4711    9-A2
  73   0.0000       2.205027        60.0018   18-B2
  74   0.0000       2.205027        60.0018   18-B1
  75   0.0000       2.305080        62.7244   31-A1
  76   0.0000       2.489226        67.7353   32-A1
  77   0.0000       2.984969        81.2251   33-A1
  78   0.0000       2.984969        81.2251   10-A2
  79   0.0000       3.060378        83.2771   19-B2
  80   0.0000       3.060378        83.2771   19-B1
  81   0.0000       3.269026        88.9547   20-B2
  82   0.0000       3.269026        88.9547   20-B1
  83   0.0000       3.301076        89.8269   34-A1
  84   0.0000       3.441213        93.6402   35-A1
  85   0.0000       3.916096       106.5624   36-A1
  86   0.0000       3.916096       106.5624   11-A2
  87   0.0000       3.919785       106.6628   21-B2
  88   0.0000       3.919785       106.6628   21-B1
  89   0.0000       3.932970       107.0216   22-B1
  90   0.0000       3.932970       107.0216   22-B2
  91   0.0000       3.990544       108.5882   37-A1
  92   0.0000       3.990544       108.5882   12-A2
  93   0.0000       4.090024       111.2952   23-B2
  94   0.0000       4.090024       111.2952   23-B1
  95   0.0000       4.108703       111.8035   38-A1
  96   0.0000       4.108703       111.8035   13-A2
  97   0.0000       4.139524       112.6422   39-A1
  98   0.0000       4.147496       112.8591   24-B2
  99   0.0000       4.147496       112.8591   24-B1
 100   0.0000       4.239671       115.3673   40-A1
 101   0.0000       4.239671       115.3673   14-A2
 102   0.0000       4.289326       116.7185   25-B2
 103   0.0000       4.289326       116.7185   25-B1
 104   0.0000       4.462052       121.4186   41-A1
 105   0.0000       4.925840       134.0389   42-A1
 106   0.0000       5.178076       140.9026   26-B2
 107   0.0000       5.178076       140.9026   26-B1
 108   0.0000       5.546364       150.9242   43-A1
 109   0.0000       6.691871       182.0951   27-B1
 110   0.0000       6.691871       182.0951   27-B2
 111   0.0000       7.096856       193.1153   44-A1
 112   0.0000       7.096856       193.1153   15-A2
 113   0.0000       7.613544       207.1751   45-A1
 114   0.0000       7.643803       207.9985   28-B2
 115   0.0000       7.643803       207.9985   28-B1
 116   0.0000       8.216792       223.5903   46-A1
 117   0.0000       8.725618       237.4361   29-B1
 118   0.0000       8.725618       237.4361   29-B2
 119   0.0000       8.735211       237.6972   47-A1
 120   0.0000       8.735211       237.6972   16-A2
 121   0.0000       9.255213       251.8472   30-B2
 122   0.0000       9.255213       251.8472   30-B1
 123   0.0000       9.478988       257.9364   48-A1
 124   0.0000      10.277748       279.6717   49-A1
 125   0.0000      15.594339       424.3435   50-A1

                    ********************************
                    * MULLIKEN POPULATION ANALYSIS *
                    ********************************

-----------------------
MULLIKEN ATOMIC CHARGES
-----------------------
   0 B :    0.134756
   1 H :   -0.134756
Sum of atomic charges:   -0.0000000

--------------------------------
MULLIKEN REDUCED ORBITAL CHARGES
--------------------------------
  0 B s       :     3.785487  s :     3.785487
      pz      :     1.039274  p :     1.039274
      px      :     0.000000
      py      :     0.000000
      dz2     :     0.038366  d :     0.038366
      dxz     :    -0.000000
      dyz     :     0.000000
      dx2y2   :     0.000000
      dxy     :     0.000000
      f0      :     0.001829  f :     0.001829
      f+1     :     0.000000
      f-1     :    -0.000000
      f+2     :     0.000000
      f-2     :     0.000000
      f+3     :     0.000000
      f-3     :     0.000000
      g0      :     0.000287  g :     0.000287
      g+1     :     0.000000
      g-1     :     0.000000
      g+2     :    -0.000000
      g-2     :     0.000000
      g+3     :     0.000000
      g-3     :     0.000000
      g+4     :     0.000000
      g-4     :     0.000000
  1 H s       :     1.119200  s :     1.119200
      pz      :     0.014453  p :     0.014453
      px      :     0.000000
      py      :    -0.000000
      dz2     :     0.000980  d :     0.000980
      dxz     :     0.000000
      dyz     :    -0.000000
      dx2y2   :     0.000000
      dxy     :     0.000000
      f0      :     0.000123  f :     0.000123
      f+1     :     0.000000
      f-1     :     0.000000
      f+2     :    -0.000000
      f-2     :    -0.000000
      f+3     :     0.000000
      f-3     :     0.000000


                     *******************************
                     * LOEWDIN POPULATION ANALYSIS *
                     *******************************

----------------------
LOEWDIN ATOMIC CHARGES
----------------------
   0 B :    0.466093
   1 H :   -0.466093

-------------------------------
LOEWDIN REDUCED ORBITAL CHARGES
-------------------------------
  0 B s       :     3.217000  s :     3.217000
      pz      :     1.222227  p :     1.222227
      px      :     0.000000
      py      :     0.000000
      dz2     :     0.074601  d :     0.074601
      dxz     :     0.000000
      dyz     :     0.000000
      dx2y2   :     0.000000
      dxy     :     0.000000
      f0      :     0.015340  f :     0.015340
      f+1     :     0.000000
      f-1     :     0.000000
      f+2     :     0.000000
      f-2     :     0.000000
      f+3     :     0.000000
      f-3     :     0.000000
      g0      :     0.004739  g :     0.004739
      g+1     :     0.000000
      g-1     :     0.000000
      g+2     :     0.000000
      g-2     :     0.000000
      g+3     :     0.000000
      g-3     :     0.000000
      g+4     :     0.000000
      g-4     :     0.000000
  1 H s       :     1.017132  s :     1.017132
      pz      :     0.327746  p :     0.327746
      px      :     0.000000
      py      :     0.000000
      dz2     :     0.096008  d :     0.096008
      dxz     :     0.000000
      dyz     :     0.000000
      dx2y2   :     0.000000
      dxy     :     0.000000
      f0      :     0.025208  f :     0.025208
      f+1     :     0.000000
      f-1     :     0.000000
      f+2     :     0.000000
      f-2     :     0.000000
      f+3     :     0.000000
      f-3     :     0.000000


                      *****************************
                      * MAYER POPULATION ANALYSIS *
                      *****************************

  NA   - Mulliken gross atomic population
  ZA   - Total nuclear charge
  QA   - Mulliken gross atomic charge
  VA   - Mayer's total valence
  BVA  - Mayer's bonded valence
  FA   - Mayer's free valence

  ATOM       NA         ZA         QA         VA         BVA        FA
  0 B      4.8652     5.0000     0.1348     0.9049     0.9049    -0.0000
  1 H      1.1348     1.0000    -0.1348     0.9049     0.9049    -0.0000

  Mayer bond orders larger than 0.100000
B(  0-B ,  1-H ) :   0.9049 

-------
TIMINGS
-------

Total SCF time: 0 days 0 hours 0 min 2 sec 

Total time                  ....       2.190 sec
Sum of individual times     ....       2.033 sec  ( 92.8%)

Fock matrix formation       ....       1.974 sec  ( 90.1%)
Diagonalization             ....       0.017 sec  (  0.8%)
Density matrix formation    ....       0.001 sec  (  0.1%)
Population analysis         ....       0.004 sec  (  0.2%)
Initial guess               ....       0.007 sec  (  0.3%)
Orbital Transformation      ....       0.000 sec  (  0.0%)
Orbital Orthonormalization  ....       0.000 sec  (  0.0%)
DIIS solution               ....       0.010 sec  (  0.5%)
SOSCF solution              ....       0.013 sec  (  0.6%)

Maximum memory used throughout the entire SCF-calculation: 228.6 MB
[cnode04:423977] 7 more processes have sent help message help-mpi-btl-openib.txt / error in device init
[cnode04:423977] Set MCA parameter "orte_base_help_aggregate" to 0 to see all help / error messages

-------------------------   --------------------
FINAL SINGLE POINT ENERGY       -25.129262225043
-------------------------   --------------------


                            ***************************************
                            *     ORCA property calculations      *
                            ***************************************

                                    ---------------------
                                    Active property flags
                                    ---------------------
   (+) Dipole Moment


------------------------------------------------------------------------------
                       ORCA ELECTRIC PROPERTIES CALCULATION
------------------------------------------------------------------------------

Dipole Moment Calculation                       ... on
Quadrupole Moment Calculation                   ... off
Polarizability Calculation                      ... off
GBWName                                         ... /scratch/BH-1.3-O_157/BH-1.3-O.gbw
Electron density file                           ... /scratch/BH-1.3-O_157/BH-1.3-O.scfp
The origin for moment calculation is the CENTER OF MASS  = ( 0.000000,  0.000000  0.000000)

-------------
DIPOLE MOMENT
-------------
                                X             Y             Z
Electronic contribution:      0.00000      -0.00000      -0.59849
Nuclear contribution   :      0.00000       0.00000       1.19943
                        -----------------------------------------
Total Dipole Moment    :      0.00000      -0.00000       0.60094
                        -----------------------------------------
Magnitude (a.u.)       :      0.60094
Magnitude (Debye)      :      1.52747



--------------------
Rotational spectrum 
--------------------
 
Rotational constants in cm-1:     0.000000    10.818523    10.818523 
Rotational constants in MHz :     0.000000 324331.147717 324331.147717 

 Dipole components along the rotational axes: 
x,y,z [a.u.] :     0.600941    -0.000000     0.000000 
x,y,z [Debye]:     1.527471    -0.000000     0.000000 

 
--------------------------------------------------------------------------
WARNING: There was an error initializing an OpenFabrics device.

  Local host:   cnode04
  Local device: mlx5_0
--------------------------------------------------------------------------
[cnode04:424186] 7 more processes have sent help message help-mpi-btl-openib.txt / error in device init
[cnode04:424186] Set MCA parameter "orte_base_help_aggregate" to 0 to see all help / error messages

Timings for individual modules:

Sum of individual times         ...        3.039 sec (=   0.051 min)
GTO integral calculation        ...        0.487 sec (=   0.008 min)  16.0 %
SCF iterations                  ...        2.552 sec (=   0.043 min)  84.0 %
                             ****ORCA TERMINATED NORMALLY****
TOTAL RUN TIME: 0 days 0 hours 0 minutes 3 seconds 493 msec

Sender: Unischeduler System <lcz@mgt01>
Subject: Job 133490: <#!/bin/bash
#BSUB -J intel
#BSUB -o BH-1.3-O.out
#BSUB -n 8
#BSUB -q cqueue
export LD_LIBRARY_PATH=/apps/software/openmpi-4.1.1/lib:/apps/software/orca_5_0_0:$LD_LIBRARY_PATH
export PATH=/apps/software/openmpi-4.1.1/bin:/apps/software/orca_5_0_0:$PATH
mkdir /scratch/BH-1.3-O_157
scp $USER@mgt01:/apps/users/lcz/exe13/RHF/BH-1.3-O.inp /scratch/BH-1.3-O_157
/apps/software/orca_5_0_0/orca /scratch/BH-1.3-O_157/BH-1.3-O.inp >& BH-1.3-O.out
scp /scratch/BH-1.3-O_157/*.gbw $USER@mgt01:/apps/users/lcz/exe13/RHF
scp /scratch/BH-1.3-O_157/*.xyz $USER@mgt01:/apps/users/lcz/exe13/RHF
scp /scratch/BH-1.3-O_157/*.trj $USER@mgt01:/apps/users/lcz/exe13/RHF> Exited

Job <#!/bin/bash
#BSUB -J intel
#BSUB -o BH-1.3-O.out
#BSUB -n 8
#BSUB -q cqueue
export LD_LIBRARY_PATH=/apps/software/openmpi-4.1.1/lib:/apps/software/orca_5_0_0:$LD_LIBRARY_PATH
export PATH=/apps/software/openmpi-4.1.1/bin:/apps/software/orca_5_0_0:$PATH
mkdir /scratch/BH-1.3-O_157
scp $USER@mgt01:/apps/users/lcz/exe13/RHF/BH-1.3-O.inp /scratch/BH-1.3-O_157
/apps/software/orca_5_0_0/orca /scratch/BH-1.3-O_157/BH-1.3-O.inp >& BH-1.3-O.out
scp /scratch/BH-1.3-O_157/*.gbw $USER@mgt01:/apps/users/lcz/exe13/RHF
scp /scratch/BH-1.3-O_157/*.xyz $USER@mgt01:/apps/users/lcz/exe13/RHF
scp /scratch/BH-1.3-O_157/*.trj $USER@mgt01:/apps/users/lcz/exe13/RHF> was submitted from host <mgt01> by user <lcz>.
Job was executed on host(s) <8*cnode04>, in queue <cqueue>, as user <lcz>.
</apps/users/lcz> was used as the home directory.
</apps/users/lcz/exe13/RHF> was used as the working directory.
Started at 2022-05-21 17:11:48
Results reported at 2022-05-21 17:11:53

Your job looked like:

------------------------------------------------------------
# User input
#!/bin/bash
#BSUB -J intel
#BSUB -o BH-1.3-O.out
#BSUB -n 8
#BSUB -q cqueue
export LD_LIBRARY_PATH=/apps/software/openmpi-4.1.1/lib:/apps/software/orca_5_0_0:$LD_LIBRARY_PATH
export PATH=/apps/software/openmpi-4.1.1/bin:/apps/software/orca_5_0_0:$PATH
mkdir /scratch/BH-1.3-O_157
scp $USER@mgt01:/apps/users/lcz/exe13/RHF/BH-1.3-O.inp /scratch/BH-1.3-O_157
/apps/software/orca_5_0_0/orca /scratch/BH-1.3-O_157/BH-1.3-O.inp >& BH-1.3-O.out
scp /scratch/BH-1.3-O_157/*.gbw $USER@mgt01:/apps/users/lcz/exe13/RHF
scp /scratch/BH-1.3-O_157/*.xyz $USER@mgt01:/apps/users/lcz/exe13/RHF
scp /scratch/BH-1.3-O_157/*.trj $USER@mgt01:/apps/users/lcz/exe13/RHF
------------------------------------------------------------

Exited with exit code 1.

Resource usage summary:

    CPU time   :             6.9 sec.
    Max Memory :               874 MB
    Max Processes  :              13


The output (if any) follows:

/scratch/BH-1.3-O_157/*.xyz: No such file or directory
/scratch/BH-1.3-O_157/*.trj: No such file or directory
