
                                        *****************
                                        * O   R   C   A *
                                        *****************

                                            #,                                       
                                            ###                                      
                                            ####                                     
                                            #####                                    
                                            ######                                   
                                           ########,                                 
                                     ,,################,,,,,                         
                               ,,#################################,,                 
                          ,,##########################################,,             
                       ,#########################################, ''#####,          
                    ,#############################################,,   '####,        
                  ,##################################################,,,,####,       
                ,###########''''           ''''###############################       
              ,#####''   ,,,,##########,,,,          '''####'''          '####       
            ,##' ,,,,###########################,,,                        '##       
           ' ,,###''''                  '''############,,,                           
         ,,##''                                '''############,,,,        ,,,,,,###''
      ,#''                                            '''#######################'''  
     '                                                          ''''####''''         
             ,#######,   #######,   ,#######,      ##                                
            ,#'     '#,  ##    ##  ,#'     '#,    #''#        ######   ,####,        
            ##       ##  ##   ,#'  ##            #'  '#       #        #'  '#        
            ##       ##  #######   ##           ,######,      #####,   #    #        
            '#,     ,#'  ##    ##  '#,     ,#' ,#      #,         ##   #,  ,#        
             '#######'   ##     ##  '#######'  #'      '#     #####' # '####'        



                  #######################################################
                  #                        -***-                        #
                  #          Department of theory and spectroscopy      #
                  #    Directorship and core code : Frank Neese         #
                  #        Max Planck Institute fuer Kohlenforschung    #
                  #                Kaiser Wilhelm Platz 1               #
                  #                 D-45470 Muelheim/Ruhr               #
                  #                      Germany                        #
                  #                                                     #
                  #                  All rights reserved                #
                  #                        -***-                        #
                  #######################################################


                         Program Version 5.0.0 -  RELEASE  -
                                (SVN: $Rev: 19529$)
                ($Date: 2021-06-28 11:36:33 +0200 (Mo, 28 Jun 2021) $)


 With contributions from (in alphabetic order):
   Daniel Aravena         : Magnetic Suceptibility
   Michael Atanasov       : Ab Initio Ligand Field Theory (pilot matlab implementation)
   Alexander A. Auer      : GIAO ZORA, VPT2 properties, NMR spectrum
   Ute Becker             : Parallelization
   Giovanni Bistoni       : ED, misc. LED, open-shell LED, HFLD
   Martin Brehm           : Molecular dynamics
   Dmytro Bykov           : SCF Hessian
   Vijay G. Chilkuri      : MRCI spin determinant printing, contributions to CSF-ICE
   Dipayan Datta          : RHF DLPNO-CCSD density
   Achintya Kumar Dutta   : EOM-CC, STEOM-CC
   Dmitry Ganyushin       : Spin-Orbit,Spin-Spin,Magnetic field MRCI
   Miquel Garcia          : C-PCM Hessian, Gaussian charge scheme
   Yang Guo               : DLPNO-NEVPT2, F12-NEVPT2, CIM, IAO-localization
   Andreas Hansen         : Spin unrestricted coupled pair/coupled cluster methods
   Benjamin Helmich-Paris : MC-RPA, TRAH-SCF, COSX integrals
   Lee Huntington         : MR-EOM, pCC
   Robert Izsak           : Overlap fitted RIJCOSX, COSX-SCS-MP3, EOM
   Marcus Kettner         : VPT2
   Christian Kollmar      : KDIIS, OOCD, Brueckner-CCSD(T), CCSD density, CASPT2, CASPT2-K
   Simone Kossmann        : Meta GGA functionals, TD-DFT gradient, OOMP2, MP2 Hessian
   Martin Krupicka        : Initial AUTO-CI
   Lucas Lang             : DCDCAS
   Marvin Lechner         : AUTO-CI (C++ implementation), FIC-MRCC
   Dagmar Lenk            : GEPOL surface, SMD
   Dimitrios Liakos       : Extrapolation schemes; Compound Job, initial MDCI parallelization
   Dimitrios Manganas     : Further ROCIS development; embedding schemes
   Dimitrios Pantazis     : SARC Basis sets
   Anastasios Papadopoulos: AUTO-CI, single reference methods and gradients
   Taras Petrenko         : DFT Hessian,TD-DFT gradient, ASA, ECA, R-Raman, ABS, FL, XAS/XES, NRVS
   Peter Pinski           : DLPNO-MP2, DLPNO-MP2 Gradient
   Christoph Reimann      : Effective Core Potentials
   Marius Retegan         : Local ZFS, SOC
   Christoph Riplinger    : Optimizer, TS searches, QM/MM, DLPNO-CCSD(T), (RO)-DLPNO pert. Triples
   Tobias Risthaus        : Range-separated hybrids, TD-DFT gradient, RPA, STAB
   Michael Roemelt        : Original ROCIS implementation
   Masaaki Saitow         : Open-shell DLPNO-CCSD energy and density
   Barbara Sandhoefer     : DKH picture change effects
   Avijit Sen             : IP-ROCIS
   Kantharuban Sivalingam : CASSCF convergence, NEVPT2, FIC-MRCI
   Bernardo de Souza      : ESD, SOC TD-DFT
   Georgi Stoychev        : AutoAux, RI-MP2 NMR
   Willem Van den Heuvel  : Paramagnetic NMR
   Boris Wezisla          : Elementary symmetry handling
   Frank Wennmohs         : Technical directorship


 We gratefully acknowledge several colleagues who have allowed us to
 interface, adapt or use parts of their codes:
   Stefan Grimme, W. Hujo, H. Kruse, P. Pracht,  : VdW corrections, initial TS optimization,
                  C. Bannwarth, S. Ehlert          DFT functionals, gCP, sTDA/sTD-DF
   Ed Valeev, F. Pavosevic, A. Kumar             : LibInt (2-el integral package), F12 methods
   Garnet Chan, S. Sharma, J. Yang, R. Olivares  : DMRG
   Ulf Ekstrom                                   : XCFun DFT Library
   Mihaly Kallay                                 : mrcc  (arbitrary order and MRCC methods)
   Jiri Pittner, Ondrej Demel                    : Mk-CCSD
   Frank Weinhold                                : gennbo (NPA and NBO analysis)
   Christopher J. Cramer and Donald G. Truhlar   : smd solvation model
   Lars Goerigk                                  : TD-DFT with DH, B97 family of functionals
   V. Asgeirsson, H. Jonsson                     : NEB implementation
   FAccTs GmbH                                   : IRC, NEB, NEB-TS, DLPNO-Multilevel, CI-OPT
                                                   MM, QMMM, 2- and 3-layer-ONIOM, Crystal-QMMM,
                                                   LR-CPCM, SF, NACMEs, symmetry and pop. for TD-DFT,
                                                   nearIR, NL-DFT gradient (VV10), updates on ESD,
                                                   ML-optimized integration grids
   S Lehtola, MJT Oliveira, MAL Marques          : LibXC Library
   Liviu Ungur et al                             : ANISO software


 Your calculation uses the libint2 library for the computation of 2-el integrals
 For citations please refer to: http://libint.valeyev.net

 Your ORCA version has been built with support for libXC version: 5.1.0
 For citations please refer to: https://tddft.org/programs/libxc/

 This ORCA versions uses:
   CBLAS   interface :  Fast vector & matrix operations
   LAPACKE interface :  Fast linear algebra routines
   SCALAPACK package :  Parallel linear algebra routines
   Shared memory     :  Shared parallel matrices
   BLAS/LAPACK       :  OpenBLAS 0.3.15  USE64BITINT DYNAMIC_ARCH NO_AFFINITY SkylakeX SINGLE_THREADED
        Core in use  :  SkylakeX
   Copyright (c) 2011-2014, The OpenBLAS Project


================================================================================

----- Orbital basis set information -----
Your calculation utilizes the basis: aug-cc-pVQZ 
    H, B-Ne : Obtained from the ccRepo (grant-hill.group.shef.ac.uk/ccrepo) Feb. 2017
              R. A. Kendall, T. H. Dunning, Jr., R. J. Harrison, J. Chem. Phys. 96, 6796 (1992)
         He : Obtained from the ccRepo (grant-hill.group.shef.ac.uk/ccrepo) Feb. 2017
              D. E. Woon, T. H. Dunning, Jr., J. Chem. Phys. 100, 2975 (1994)
  Li-Be, Na : Obtained from the ccRepo (grant-hill.group.shef.ac.uk/ccrepo) Feb. 2017
              B. P. Prascher, D. E. Woon, K. A. Peterson, T. H. Dunning, Jr., A. K. Wilson, Theor. Chem. Acc. 128, 69 (2011)
         Mg : Obtained from the Peterson Research Group Website (tyr0.chem.wsu.edu/~kipeters) Feb. 2017
              B. P. Prascher, D. E. Woon, K. A. Peterson, T. H. Dunning, Jr., A. K. Wilson, Theor. Chem. Acc. 128, 69 (2011)
      Al-Ar : Obtained from the ccRepo (grant-hill.group.shef.ac.uk/ccrepo) Feb. 2017
              D. E. Woon, T. H. Dunning, Jr., J. Chem. Phys. 98, 1358 (1993)
      Sc-Zn : Obtained from the ccRepo (grant-hill.group.shef.ac.uk/ccrepo) Feb. 2017
              N. B. Balabanov, K. A. Peterson, J. Chem. Phys. 123, 064107 (2005)
              N. B. Balabanov, K. A. Peterson, J. Chem. Phys. 125, 074110 (2006)
      Ga-Kr : Obtained from the ccRepo (grant-hill.group.shef.ac.uk/ccrepo) Feb. 2017
              A. K. Wilson, D. E. Woon, K. A. Peterson, T. H. Dunning, Jr., J. Chem. Phys. 110, 7667 (1999)

================================================================================
                                        WARNINGS
                       Please study these warnings very carefully!
================================================================================


INFO   : the flag for use of the SHARK integral package has been found!

================================================================================
                                       INPUT FILE
================================================================================
NAME = /scratch/BH-1.1-O_853/BH-1.1-O.inp
|  1> ! RHF aug-cc-pVQZ pal8 VeryTightSCF UseSym
|  2> 
|  3> *xyz 0 1
|  4>  B	0.0	0.0	0.0
|  5>  H	1.1	0.0	0.0
|  6> **                         ****END OF INPUT****
================================================================================

------------------------------------------------------------------------------
                            SYMMETRY HANDLING SETUP
------------------------------------------------------------------------------

------------------
SYMMETRY DETECTION
------------------
The point group will now be determined using a tolerance of 1.0000e-04.
Splitting atom subsets according to nuclear charge, mass and basis set.
Splitting atom subsets according to distance from the molecule's center.
Identifying relative distance patterns of the atoms.
Splitting atom subsets according to atoms' relative distance patterns.
Bring atoms of each subset into input order.
The molecule is linear.
There is at least one atom subset not centered around the molecule's center.
The molecule does not have a center of inversion.
No further test is needed for point group Cinfv.
This point group has been found:    Cinfv
Largest non-degenerate subgroup:    C2v


Mass-centered symmetry-perfected Cartesians (point groups Cinfv and C2v):

Atom          Symmetry-perfected Cartesians (x, y, z; au)
  0       0.000000000000    0.000000000000   -0.177299740844
  1       0.000000000000    0.000000000000    1.901399006470


-----------------------------------------------
SYMMETRY-PERFECTED CARTESIAN COORDINATES (A.U.)
-----------------------------------------------
Warning (ORCA_SYM): Coordinates were not cleaned so far!

------------------
SYMMETRY REDUCTION
------------------
ORCA supports only abelian point groups.
It is now checked, if the determined point group is supported:
Point Group ( C2v   ) is          ... supported

(Re)building abelian point group:
Creating Character Table          ... done
Making direct product table       ... done
Constructing symmetry operations  ... done
Creating atom transfer table      ... done
Creating asymmetric unit          ... done

----------------------
ASYMMETRIC UNIT IN C2v
----------------------
  #  AT     MASS              COORDS (A.U.)             BAS
   0 B   10.8100   0.00000000   0.00000000  -0.17729974   0
   1 H    1.0080   0.00000000   0.00000000   1.90139901   0

----------------------
SYMMETRY ADAPTED BASIS
----------------------
The coefficients for the symmetry adapted linear combinations (SALCS)
of basis functions will now be computed:
Number of basis functions         ...   126
Preparing memory                  ... done
Constructing Gamma(red)           ... done
Reducing Gamma(red)               ... done
Constructing SALCs                ... done
Checking SALC integrity           ... nothing suspicious
Normalizing SALCs                 ... done

Storing the symmetry object:
Symmetry file                     ... /scratch/BH-1.1-O_853/BH-1.1-O.sym.tmp
Writing symmetry information      ... done

                       ****************************
                       * Single Point Calculation *
                       ****************************

---------------------------------
CARTESIAN COORDINATES (ANGSTROEM)
---------------------------------
  B      0.000000    0.000000   -0.093823
  H      0.000000    0.000000    1.006177

----------------------------
CARTESIAN COORDINATES (A.U.)
----------------------------
  NO LB      ZA    FRAG     MASS         X           Y           Z
   0 B     5.0000    0    10.810    0.000000    0.000000   -0.177300
   1 H     1.0000    0     1.008    0.000000    0.000000    1.901399

--------------------------------
INTERNAL COORDINATES (ANGSTROEM)
--------------------------------
 B      0   0   0     0.000000000000     0.00000000     0.00000000
 H      1   0   0     1.100000000000     0.00000000     0.00000000

---------------------------
INTERNAL COORDINATES (A.U.)
---------------------------
 B      0   0   0     0.000000000000     0.00000000     0.00000000
 H      1   0   0     2.078698747313     0.00000000     0.00000000

---------------------
BASIS SET INFORMATION
---------------------
There are 2 groups of distinct atoms

 Group   1 Type B   : 22s7p4d3f2g contracted to 6s5p4d3f2g pattern {991111/31111/1111/111/11}
 Group   2 Type H   : 7s4p3d2f contracted to 5s4p3d2f pattern {31111/1111/111/11}

Atom   0B    basis set group =>   1
Atom   1H    basis set group =>   2
--------------------------------------------------------------------------
WARNING: There was an error initializing an OpenFabrics device.

  Local host:   cnode04
  Local device: mlx5_0
--------------------------------------------------------------------------


           ************************************************************
           *        Program running with 8 parallel MPI-processes     *
           *              working on a common directory               *
           ************************************************************
------------------------------------------------------------------------------
                           ORCA GTO INTEGRAL CALCULATION
------------------------------------------------------------------------------
------------------------------------------------------------------------------
                   ___                                                        
                  /   \      - P O W E R E D   B Y -                         
                 /     \                                                     
                 |  |  |   _    _      __       _____    __    __             
                 |  |  |  | |  | |    /  \     |  _  \  |  |  /  |          
                  \  \/   | |  | |   /    \    | | | |  |  | /  /          
                 / \  \   | |__| |  /  /\  \   | |_| |  |  |/  /          
                |  |  |   |  __  | /  /__\  \  |    /   |      \           
                |  |  |   | |  | | |   __   |  |    \   |  |\   \          
                \     /   | |  | | |  |  |  |  | |\  \  |  | \   \       
                 \___/    |_|  |_| |__|  |__|  |_| \__\ |__|  \__/        
                                                                              
                      - O R C A' S   B I G   F R I E N D -                    
                                      &                                       
                       - I N T E G R A L  F E E D E R -                       
                                                                              
 v1 FN, 2020, v2 2021                                                         
------------------------------------------------------------------------------


Reading SHARK input file /scratch/BH-1.1-O_853/BH-1.1-O.SHARKINP.tmp ... ok
----------------------
SHARK INTEGRAL PACKAGE
----------------------

Number of atoms                             ...      2
Number of basis functions                   ...    126
Number of shells                            ...     34
Maximum angular momentum                    ...      4
Integral batch strategy                     ... SHARK/LIBINT Hybrid
RI-J (if used) integral strategy            ... SPLIT-RIJ (Revised 2003 algorithm where possible)
Printlevel                                  ...      1
Contraction scheme used                     ... SEGMENTED contraction
Coulomb Range Separation                    ... NOT USED
Exchange Range Separation                   ... NOT USED
Finite Nucleus Model                        ... NOT USED
Auxiliary Coulomb fitting basis             ... NOT available
Auxiliary J/K fitting basis                 ... NOT available
Auxiliary Correlation fitting basis         ... NOT available
Auxiliary 'external' fitting basis          ... NOT available
Integral threshold                          ...     1.000000e-12
Primitive cut-off                           ...     1.000000e-14
Primitive pair pre-selection threshold      ...     1.000000e-14

Calculating pre-screening integrals         ... done (  0.1 sec) Dimension = 34
Organizing shell pair data                  ... done (  0.0 sec)
Shell pair information
Total number of shell pairs                 ...       595
Shell pairs after pre-screening             ...       595
Total number of primitive shell pairs       ...      1563
Primitive shell pairs kept                  ...      1536
          la=0 lb=0:     66 shell pairs
          la=1 lb=0:     99 shell pairs
          la=1 lb=1:     45 shell pairs
          la=2 lb=0:     77 shell pairs
          la=2 lb=1:     63 shell pairs
          la=2 lb=2:     28 shell pairs
          la=3 lb=0:     55 shell pairs
          la=3 lb=1:     45 shell pairs
          la=3 lb=2:     35 shell pairs
          la=3 lb=3:     15 shell pairs
          la=4 lb=0:     22 shell pairs
          la=4 lb=1:     18 shell pairs
          la=4 lb=2:     14 shell pairs
          la=4 lb=3:     10 shell pairs
          la=4 lb=4:      3 shell pairs

Calculating one electron integrals          ... done (  0.0 sec)
Calculating Nuclear repulsion               ... done (  0.0 sec) ENN=      2.405350946818 Eh

SHARK setup successfully completed in   0.1 seconds

Maximum memory used throughout the entire GTOINT-calculation: 28.9 MB
[cnode04:423420] 7 more processes have sent help message help-mpi-btl-openib.txt / error in device init
[cnode04:423420] Set MCA parameter "orte_base_help_aggregate" to 0 to see all help / error messages
--------------------------------------------------------------------------
WARNING: There was an error initializing an OpenFabrics device.

  Local host:   cnode04
  Local device: mlx5_0
--------------------------------------------------------------------------


           ************************************************************
           *        Program running with 8 parallel MPI-processes     *
           *              working on a common directory               *
           ************************************************************
-------------------------------------------------------------------------------
                                 ORCA SCF
-------------------------------------------------------------------------------

------------
SCF SETTINGS
------------
Hamiltonian:
 Ab initio Hamiltonian  Method          .... Hartree-Fock(GTOs)


General Settings:
 Integral files         IntName         .... /scratch/BH-1.1-O_853/BH-1.1-O
 Hartree-Fock type      HFTyp           .... RHF
 Total Charge           Charge          ....    0
 Multiplicity           Mult            ....    1
 Number of Electrons    NEL             ....    6
 Basis Dimension        Dim             ....  126
 Nuclear Repulsion      ENuc            ....      2.4053509468 Eh

 Symmetry handling      UseSym         .... ON
 Point group                           .... C2v
 Used point group                      .... C2v
 Number of irreps                      .... 4
   Irrep   A1 has   50 symmetry adapted basis functions (ofs=   0)
   Irrep   A2 has   16 symmetry adapted basis functions (ofs=  50)
   Irrep   B1 has   30 symmetry adapted basis functions (ofs=  66)
   Irrep   B2 has   30 symmetry adapted basis functions (ofs=  96)

Convergence Acceleration:
 DIIS                   CNVDIIS         .... on
   Start iteration      DIISMaxIt       ....    12
   Startup error        DIISStart       ....  0.200000
   # of expansion vecs  DIISMaxEq       ....     5
   Bias factor          DIISBfac        ....   1.050
   Max. coefficient     DIISMaxC        ....  10.000
 Trust-Rad. Augm. Hess. CNVTRAH         .... auto
   Auto Start mean grad. ratio tolernc. ....  1.125000
   Auto Start start iteration           ....    20
   Auto Start num. interpolation iter.  ....    10
   Max. Number of Micro iterations      ....    16
   Max. Number of Macro iterations      .... Maxiter - #DIIS iter
   Number of Davidson start vectors     ....     2
   Converg. threshold I  (grad. norm)   ....   2.000e-06
   Converg. threshold II (energy diff.) ....   1.000e-09
   Grad. Scal. Fac. for Micro threshold ....   0.100
   Minimum threshold for Micro iter.    ....   0.010
   NR start threshold (gradient norm)   ....   0.001
   Initial trust radius                 ....   0.400
   Minimum AH scaling param. (alpha)    ....   1.000
   Maximum AH scaling param. (alpha)    .... 1000.000
   Orbital update algorithm             .... Taylor
   White noise on init. David. guess    .... on
   Maximum white noise                  ....   0.010
   Quad. conv. algorithm                .... NR
 SOSCF                  CNVSOSCF        .... on
   Start iteration      SOSCFMaxIt      ....   150
   Startup grad/error   SOSCFStart      ....  0.003300
 Level Shifting         CNVShift        .... on
   Level shift para.    LevelShift      ....    0.2500
   Turn off err/grad.   ShiftErr        ....    0.0010
 Zerner damping         CNVZerner       .... off
 Static damping         CNVDamp         .... on
   Fraction old density DampFac         ....    0.7000
   Max. Damping (<1)    DampMax         ....    0.9800
   Min. Damping (>=0)   DampMin         ....    0.0000
   Turn off err/grad.   DampErr         ....    0.1000
 Fernandez-Rico         CNVRico         .... off

SCF Procedure:
 Maximum # iterations   MaxIter         ....   125
 SCF integral mode      SCFMode         .... Direct
   Integral package                     .... SHARK and LIBINT hybrid scheme
 Reset frequency        DirectResetFreq ....    20
 Integral Threshold     Thresh          ....  1.000e-12 Eh
 Primitive CutOff       TCut            ....  1.000e-14 Eh

Convergence Tolerance:
 Convergence Check Mode ConvCheckMode   .... Total+1el-Energy
 Convergence forced     ConvForced      .... 0
 Energy Change          TolE            ....  1.000e-09 Eh
 1-El. energy change                    ....  1.000e-06 Eh
 Orbital Gradient       TolG            ....  2.000e-06
 Orbital Rotation angle TolX            ....  2.000e-06
 DIIS Error             TolErr          ....  1.000e-08


Diagonalization of the overlap matrix:
Smallest eigenvalue                        ... 8.246e-05
Time for diagonalization                   ...    0.002 sec
Threshold for overlap eigenvalues          ... 1.000e-08
Number of eigenvalues below threshold      ... 0
Time for construction of square roots      ...    0.002 sec
Producing symmetrization matrix            ... done (   0.000 sec)
Total time needed                          ...    0.005 sec

Time for model grid setup =    0.007 sec

------------------------------
INITIAL GUESS: MODEL POTENTIAL
------------------------------
Loading Hartree-Fock densities                     ... done
Calculating cut-offs                               ... done
Initializing the effective Hamiltonian             ... done
Setting up the integral package (SHARK)            ... done
Starting the Coulomb interaction                   ... done (   0.0 sec)
Reading the grid                                   ... done
Mapping shells                                     ... done
Starting the XC term evaluation                    ... done (   0.0 sec)
done (   0.0 sec)
Diagonalizing the Hamiltonian                      ... done (   0.0 sec)
Back transforming the eigenvectors                 ... done (   0.0 sec)
Now organizing SCF variables                       ... done
The symmetry of the initial guess is 1-A1
Irrep occupations for operator 0
    A1 -    3
    A2 -    0
    B1 -    0
    B2 -    0
                      ------------------
                      INITIAL GUESS DONE (   0.0 sec)
                      ------------------
--------------
SCF ITERATIONS
--------------
ITER       Energy         Delta-E        Max-DP      RMS-DP      [F,P]     Damp
               ***  Starting incremental Fock matrix formation  ***
  0    -25.1132912092   0.000000000000 0.04190467  0.00067550  0.1008527 0.7000
  1    -25.1163561040  -0.003064894772 0.03116589  0.00052890  0.0739978 0.7000
                               ***Turning on DIIS***
  2    -25.1186713643  -0.002315260340 0.07515869  0.00131106  0.0539036 0.0000
  3    -25.1292913506  -0.010619986283 0.01201670  0.00016573  0.0052419 0.0000
                      *** Initiating the SOSCF procedure ***
                           *** Shutting down DIIS ***
                      *** Re-Reading the Fockian *** 
                      *** Removing any level shift *** 
ITER      Energy       Delta-E        Grad      Rot      Max-DP    RMS-DP
  4    -25.12481689   0.0044744635  0.000631  0.000631  0.002928  0.000052
               *** Restarting incremental Fock matrix formation ***
  5    -25.12456559   0.0002512950  0.000251  0.000544  0.003819  0.000057
  6    -25.12456711  -0.0000015164  0.000088  0.000280  0.002222  0.000031
  7    -25.12456730  -0.0000001923  0.000008  0.000014  0.000089  0.000001
  8    -25.12456730  -0.0000000015  0.000003  0.000008  0.000022  0.000000
                 **** Energy Check signals convergence ****
              ***Rediagonalizing the Fockian in SOSCF/NRSCF***

               *****************************************************
               *                     SUCCESS                       *
               *           SCF CONVERGED AFTER   9 CYCLES          *
               *****************************************************


----------------
TOTAL SCF ENERGY
----------------

Total Energy       :          -25.12456730 Eh            -683.67423 eV

Components:
Nuclear Repulsion  :            2.40535095 Eh              65.45293 eV
Electronic Energy  :          -27.52991825 Eh            -749.12716 eV
One Electron Energy:          -37.66086193 Eh           -1024.80415 eV
Two Electron Energy:           10.13094368 Eh             275.67699 eV

Virial components:
Potential Energy   :          -50.38715204 Eh           -1371.10411 eV
Kinetic Energy     :           25.26258474 Eh             687.42988 eV
Virial Ratio       :            1.99453669


---------------
SCF CONVERGENCE
---------------

  Last Energy change         ...   -2.0432e-10  Tolerance :   1.0000e-09
  Last MAX-Density change    ...    3.5222e-06  Tolerance :   1.0000e-08
  Last RMS-Density change    ...    5.2554e-08  Tolerance :   1.0000e-09
  Last Orbital Gradient      ...    3.7445e-07  Tolerance :   2.0000e-06
  Last Orbital Rotation      ...    8.1024e-07  Tolerance :   2.0000e-06

             **** THE GBW FILE WAS UPDATED (/scratch/BH-1.1-O_853/BH-1.1-O.gbw) ****
             **** DENSITY /scratch/BH-1.1-O_853/BH-1.1-O.scfp WAS UPDATED ****
             **** ENERGY FILE WAS UPDATED (/scratch/BH-1.1-O_853/BH-1.1-O.en.tmp) ****
             **** THE GBW FILE WAS UPDATED (/scratch/BH-1.1-O_853/BH-1.1-O.gbw) ****
             **** DENSITY /scratch/BH-1.1-O_853/BH-1.1-O.scfp WAS UPDATED ****
----------------
ORBITAL ENERGIES
----------------

  NO   OCC          E(Eh)            E(eV)    Irrep 
   0   2.0000      -7.669036      -208.6851    1-A1
   1   2.0000      -0.685795       -18.6614    2-A1
   2   2.0000      -0.344656        -9.3786    3-A1
   3   0.0000       0.024512         0.6670    1-B2
   4   0.0000       0.024512         0.6670    1-B1
   5   0.0000       0.029616         0.8059    4-A1
   6   0.0000       0.045217         1.2304    5-A1
   7   0.0000       0.079501         2.1633    2-B2
   8   0.0000       0.079501         2.1633    2-B1
   9   0.0000       0.114511         3.1160    6-A1
  10   0.0000       0.133908         3.6438    3-B2
  11   0.0000       0.133908         3.6438    3-B1
  12   0.0000       0.145399         3.9565    1-A2
  13   0.0000       0.145399         3.9565    7-A1
  14   0.0000       0.149282         4.0622    8-A1
  15   0.0000       0.184286         5.0147    9-A1
  16   0.0000       0.270282         7.3548   10-A1
  17   0.0000       0.273791         7.4502    4-B2
  18   0.0000       0.273791         7.4502    4-B1
  19   0.0000       0.320506         8.7214    5-B1
  20   0.0000       0.320506         8.7214    5-B2
  21   0.0000       0.406632        11.0650   11-A1
  22   0.0000       0.429803        11.6955   12-A1
  23   0.0000       0.447112        12.1665    2-A2
  24   0.0000       0.447112        12.1665   13-A1
  25   0.0000       0.461402        12.5554    6-B2
  26   0.0000       0.461402        12.5554    6-B1
  27   0.0000       0.480461        13.0740    7-B1
  28   0.0000       0.480461        13.0740    7-B2
  29   0.0000       0.502402        13.6711   14-A1
  30   0.0000       0.502402        13.6711    3-A2
  31   0.0000       0.517535        14.0828   15-A1
  32   0.0000       0.554697        15.0941   16-A1
  33   0.0000       0.599158        16.3039    8-B2
  34   0.0000       0.599158        16.3039    8-B1
  35   0.0000       0.764581        20.8053   17-A1
  36   0.0000       0.777980        21.1699    9-B1
  37   0.0000       0.777980        21.1699    9-B2
  38   0.0000       0.800636        21.7864    4-A2
  39   0.0000       0.800636        21.7864   18-A1
  40   0.0000       0.910999        24.7895   19-A1
  41   0.0000       1.051934        28.6246   10-B1
  42   0.0000       1.051934        28.6246   10-B2
  43   0.0000       1.088013        29.6063   20-A1
  44   0.0000       1.179987        32.1091   11-B1
  45   0.0000       1.179987        32.1091   11-B2
  46   0.0000       1.367830        37.2206   21-A1
  47   0.0000       1.369879        37.2763    5-A2
  48   0.0000       1.369879        37.2763   22-A1
  49   0.0000       1.374470        37.4012   12-B1
  50   0.0000       1.374470        37.4012   12-B2
  51   0.0000       1.389508        37.8104    6-A2
  52   0.0000       1.389508        37.8104   23-A1
  53   0.0000       1.440651        39.2021   13-B1
  54   0.0000       1.440651        39.2021   13-B2
  55   0.0000       1.455772        39.6136    7-A2
  56   0.0000       1.455772        39.6136   24-A1
  57   0.0000       1.472009        40.0554   14-B1
  58   0.0000       1.472009        40.0554   14-B2
  59   0.0000       1.480010        40.2731   25-A1
  60   0.0000       1.583662        43.0936   26-A1
  61   0.0000       1.608356        43.7656   15-B1
  62   0.0000       1.608356        43.7656   15-B2
  63   0.0000       1.663407        45.2636    8-A2
  64   0.0000       1.663407        45.2636   27-A1
  65   0.0000       1.833580        49.8942   28-A1
  66   0.0000       1.867521        50.8178   16-B2
  67   0.0000       1.867521        50.8178   16-B1
  68   0.0000       1.889381        51.4127   29-A1
  69   0.0000       1.936055        52.6827   17-B1
  70   0.0000       1.936055        52.6827   17-B2
  71   0.0000       2.027220        55.1635    9-A2
  72   0.0000       2.027220        55.1635   30-A1
  73   0.0000       2.204496        59.9874   31-A1
  74   0.0000       2.255896        61.3860   18-B1
  75   0.0000       2.255896        61.3860   18-B2
  76   0.0000       2.752653        74.9035   32-A1
  77   0.0000       3.132648        85.2437   19-B1
  78   0.0000       3.132648        85.2437   19-B2
  79   0.0000       3.223817        87.7245   20-B1
  80   0.0000       3.223817        87.7245   20-B2
  81   0.0000       3.228516        87.8524   10-A2
  82   0.0000       3.228516        87.8524   33-A1
  83   0.0000       3.300195        89.8029   34-A1
  84   0.0000       3.765815       102.4730   35-A1
  85   0.0000       3.921280       106.7034   11-A2
  86   0.0000       3.921280       106.7034   36-A1
  87   0.0000       3.932787       107.0166   21-B1
  88   0.0000       3.932787       107.0166   21-B2
  89   0.0000       4.016285       109.2887   12-A2
  90   0.0000       4.016285       109.2887   37-A1
  91   0.0000       4.021719       109.4365   22-B1
  92   0.0000       4.021719       109.4365   22-B2
  93   0.0000       4.078124       110.9714   13-A2
  94   0.0000       4.078124       110.9714   38-A1
  95   0.0000       4.098534       111.5268   23-B1
  96   0.0000       4.098534       111.5268   23-B2
  97   0.0000       4.164459       113.3207   39-A1
  98   0.0000       4.260311       115.9290   24-B1
  99   0.0000       4.260311       115.9290   24-B2
 100   0.0000       4.406512       119.9073   25-B1
 101   0.0000       4.406512       119.9073   25-B2
 102   0.0000       4.486244       122.0769   14-A2
 103   0.0000       4.486244       122.0769   40-A1
 104   0.0000       4.495021       122.3157   41-A1
 105   0.0000       5.209003       141.7442   42-A1
 106   0.0000       5.610307       152.6642   26-B2
 107   0.0000       5.610307       152.6642   26-B1
 108   0.0000       5.637034       153.3915   43-A1
 109   0.0000       6.782547       184.5625   27-B1
 110   0.0000       6.782547       184.5625   27-B2
 111   0.0000       7.432729       202.2548   15-A2
 112   0.0000       7.432729       202.2548   44-A1
 113   0.0000       7.851508       213.6504   45-A1
 114   0.0000       7.908800       215.2094   28-B1
 115   0.0000       7.908800       215.2094   28-B2
 116   0.0000       8.489597       231.0137   46-A1
 117   0.0000       8.933705       243.0985   16-A2
 118   0.0000       8.933705       243.0985   47-A1
 119   0.0000       9.263886       252.0832   29-B2
 120   0.0000       9.263886       252.0832   29-B1
 121   0.0000       9.399794       255.7814   30-B1
 122   0.0000       9.399794       255.7814   30-B2
 123   0.0000      10.094715       274.6912   48-A1
 124   0.0000      10.675671       290.4998   49-A1
 125   0.0000      17.110669       465.6050   50-A1

                    ********************************
                    * MULLIKEN POPULATION ANALYSIS *
                    ********************************

-----------------------
MULLIKEN ATOMIC CHARGES
-----------------------
   0 B :    0.074533
   1 H :   -0.074533
Sum of atomic charges:   -0.0000000

--------------------------------
MULLIKEN REDUCED ORBITAL CHARGES
--------------------------------
  0 B s       :     3.784206  s :     3.784206
      pz      :     1.100859  p :     1.100859
      px      :    -0.000000
      py      :    -0.000000
      dz2     :     0.038226  d :     0.038226
      dxz     :     0.000000
      dyz     :     0.000000
      dx2y2   :     0.000000
      dxy     :     0.000000
      f0      :     0.001916  f :     0.001916
      f+1     :    -0.000000
      f-1     :     0.000000
      f+2     :     0.000000
      f-2     :    -0.000000
      f+3     :     0.000000
      f-3     :     0.000000
      g0      :     0.000259  g :     0.000259
      g+1     :    -0.000000
      g-1     :    -0.000000
      g+2     :     0.000000
      g-2     :    -0.000000
      g+3     :     0.000000
      g-3     :     0.000000
      g+4     :     0.000000
      g-4     :     0.000000
  1 H s       :     1.072912  s :     1.072912
      pz      :     0.002474  p :     0.002474
      px      :     0.000000
      py      :     0.000000
      dz2     :    -0.000895  d :    -0.000895
      dxz     :     0.000000
      dyz     :     0.000000
      dx2y2   :    -0.000000
      dxy     :     0.000000
      f0      :     0.000042  f :     0.000042
      f+1     :    -0.000000
      f-1     :    -0.000000
      f+2     :     0.000000
      f-2     :    -0.000000
      f+3     :     0.000000
      f-3     :     0.000000


                     *******************************
                     * LOEWDIN POPULATION ANALYSIS *
                     *******************************

----------------------
LOEWDIN ATOMIC CHARGES
----------------------
   0 B :    0.555290
   1 H :   -0.555290

-------------------------------
LOEWDIN REDUCED ORBITAL CHARGES
-------------------------------
  0 B s       :     3.132750  s :     3.132750
      pz      :     1.229066  p :     1.229066
      px      :     0.000000
      py      :     0.000000
      dz2     :     0.066812  d :     0.066812
      dxz     :     0.000000
      dyz     :     0.000000
      dx2y2   :     0.000000
      dxy     :     0.000000
      f0      :     0.012626  f :     0.012626
      f+1     :     0.000000
      f-1     :     0.000000
      f+2     :     0.000000
      f-2     :     0.000000
      f+3     :     0.000000
      f-3     :     0.000000
      g0      :     0.003456  g :     0.003456
      g+1     :     0.000000
      g-1     :     0.000000
      g+2     :     0.000000
      g-2     :     0.000000
      g+3     :     0.000000
      g-3     :     0.000000
      g+4     :     0.000000
      g-4     :     0.000000
  1 H s       :     1.066882  s :     1.066882
      pz      :     0.353630  p :     0.353630
      px      :     0.000000
      py      :     0.000000
      dz2     :     0.101875  d :     0.101875
      dxz     :     0.000000
      dyz     :     0.000000
      dx2y2   :     0.000000
      dxy     :     0.000000
      f0      :     0.032903  f :     0.032903
      f+1     :     0.000000
      f-1     :     0.000000
      f+2     :     0.000000
      f-2     :     0.000000
      f+3     :     0.000000
      f-3     :     0.000000


                      *****************************
                      * MAYER POPULATION ANALYSIS *
                      *****************************

  NA   - Mulliken gross atomic population
  ZA   - Total nuclear charge
  QA   - Mulliken gross atomic charge
  VA   - Mayer's total valence
  BVA  - Mayer's bonded valence
  FA   - Mayer's free valence

  ATOM       NA         ZA         QA         VA         BVA        FA
  0 B      4.9255     5.0000     0.0745     0.8536     0.8536    -0.0000
  1 H      1.0745     1.0000    -0.0745     0.8536     0.8536    -0.0000

  Mayer bond orders larger than 0.100000
B(  0-B ,  1-H ) :   0.8536 

-------
TIMINGS
-------

Total SCF time: 0 days 0 hours 0 min 2 sec 

Total time                  ....       2.279 sec
Sum of individual times     ....       2.120 sec  ( 93.0%)

Fock matrix formation       ....       2.061 sec  ( 90.4%)
Diagonalization             ....       0.018 sec  (  0.8%)
Density matrix formation    ....       0.001 sec  (  0.0%)
Population analysis         ....       0.003 sec  (  0.2%)
Initial guess               ....       0.007 sec  (  0.3%)
Orbital Transformation      ....       0.000 sec  (  0.0%)
Orbital Orthonormalization  ....       0.000 sec  (  0.0%)
DIIS solution               ....       0.010 sec  (  0.4%)
SOSCF solution              ....       0.013 sec  (  0.6%)

Maximum memory used throughout the entire SCF-calculation: 228.6 MB
[cnode04:423480] 7 more processes have sent help message help-mpi-btl-openib.txt / error in device init
[cnode04:423480] Set MCA parameter "orte_base_help_aggregate" to 0 to see all help / error messages

-------------------------   --------------------
FINAL SINGLE POINT ENERGY       -25.124567302411
-------------------------   --------------------


                            ***************************************
                            *     ORCA property calculations      *
                            ***************************************

                                    ---------------------
                                    Active property flags
                                    ---------------------
   (+) Dipole Moment


------------------------------------------------------------------------------
                       ORCA ELECTRIC PROPERTIES CALCULATION
------------------------------------------------------------------------------

Dipole Moment Calculation                       ... on
Quadrupole Moment Calculation                   ... off
Polarizability Calculation                      ... off
GBWName                                         ... /scratch/BH-1.1-O_853/BH-1.1-O.gbw
Electron density file                           ... /scratch/BH-1.1-O_853/BH-1.1-O.scfp
The origin for moment calculation is the CENTER OF MASS  = ( 0.000000,  0.000000 -0.000000)

-------------
DIPOLE MOMENT
-------------
                                X             Y             Z
Electronic contribution:      0.00000       0.00000      -0.18541
Nuclear contribution   :      0.00000       0.00000       1.01490
                        -----------------------------------------
Total Dipole Moment    :      0.00000       0.00000       0.82949
                        -----------------------------------------
Magnitude (a.u.)       :      0.82949
Magnitude (Debye)      :      2.10841



--------------------
Rotational spectrum 
--------------------
 
Rotational constants in cm-1:     0.000000    15.110168    15.110168 
Rotational constants in MHz :     0.000000 452991.437720 452991.437720 

 Dipole components along the rotational axes: 
x,y,z [a.u.] :     0.829494     0.000000     0.000000 
x,y,z [Debye]:     2.108406     0.000000     0.000000 

 
--------------------------------------------------------------------------
WARNING: There was an error initializing an OpenFabrics device.

  Local host:   cnode04
  Local device: mlx5_0
--------------------------------------------------------------------------
[cnode04:423766] 7 more processes have sent help message help-mpi-btl-openib.txt / error in device init
[cnode04:423766] Set MCA parameter "orte_base_help_aggregate" to 0 to see all help / error messages

Timings for individual modules:

Sum of individual times         ...        3.177 sec (=   0.053 min)
GTO integral calculation        ...        0.506 sec (=   0.008 min)  15.9 %
SCF iterations                  ...        2.671 sec (=   0.045 min)  84.1 %
                             ****ORCA TERMINATED NORMALLY****
TOTAL RUN TIME: 0 days 0 hours 0 minutes 3 seconds 619 msec

Sender: Unischeduler System <lcz@mgt01>
Subject: Job 133488: <#!/bin/bash
#BSUB -J intel
#BSUB -o BH-1.1-O.out
#BSUB -n 8
#BSUB -q cqueue
export LD_LIBRARY_PATH=/apps/software/openmpi-4.1.1/lib:/apps/software/orca_5_0_0:$LD_LIBRARY_PATH
export PATH=/apps/software/openmpi-4.1.1/bin:/apps/software/orca_5_0_0:$PATH
mkdir /scratch/BH-1.1-O_853
scp $USER@mgt01:/apps/users/lcz/exe13/RHF/BH-1.1-O.inp /scratch/BH-1.1-O_853
/apps/software/orca_5_0_0/orca /scratch/BH-1.1-O_853/BH-1.1-O.inp >& BH-1.1-O.out
scp /scratch/BH-1.1-O_853/*.gbw $USER@mgt01:/apps/users/lcz/exe13/RHF
scp /scratch/BH-1.1-O_853/*.xyz $USER@mgt01:/apps/users/lcz/exe13/RHF
scp /scratch/BH-1.1-O_853/*.trj $USER@mgt01:/apps/users/lcz/exe13/RHF> Exited

Job <#!/bin/bash
#BSUB -J intel
#BSUB -o BH-1.1-O.out
#BSUB -n 8
#BSUB -q cqueue
export LD_LIBRARY_PATH=/apps/software/openmpi-4.1.1/lib:/apps/software/orca_5_0_0:$LD_LIBRARY_PATH
export PATH=/apps/software/openmpi-4.1.1/bin:/apps/software/orca_5_0_0:$PATH
mkdir /scratch/BH-1.1-O_853
scp $USER@mgt01:/apps/users/lcz/exe13/RHF/BH-1.1-O.inp /scratch/BH-1.1-O_853
/apps/software/orca_5_0_0/orca /scratch/BH-1.1-O_853/BH-1.1-O.inp >& BH-1.1-O.out
scp /scratch/BH-1.1-O_853/*.gbw $USER@mgt01:/apps/users/lcz/exe13/RHF
scp /scratch/BH-1.1-O_853/*.xyz $USER@mgt01:/apps/users/lcz/exe13/RHF
scp /scratch/BH-1.1-O_853/*.trj $USER@mgt01:/apps/users/lcz/exe13/RHF> was submitted from host <mgt01> by user <lcz>.
Job was executed on host(s) <8*cnode04>, in queue <cqueue>, as user <lcz>.
</apps/users/lcz> was used as the home directory.
</apps/users/lcz/exe13/RHF> was used as the working directory.
Started at 2022-05-21 17:11:42
Results reported at 2022-05-21 17:11:47

Your job looked like:

------------------------------------------------------------
# User input
#!/bin/bash
#BSUB -J intel
#BSUB -o BH-1.1-O.out
#BSUB -n 8
#BSUB -q cqueue
export LD_LIBRARY_PATH=/apps/software/openmpi-4.1.1/lib:/apps/software/orca_5_0_0:$LD_LIBRARY_PATH
export PATH=/apps/software/openmpi-4.1.1/bin:/apps/software/orca_5_0_0:$PATH
mkdir /scratch/BH-1.1-O_853
scp $USER@mgt01:/apps/users/lcz/exe13/RHF/BH-1.1-O.inp /scratch/BH-1.1-O_853
/apps/software/orca_5_0_0/orca /scratch/BH-1.1-O_853/BH-1.1-O.inp >& BH-1.1-O.out
scp /scratch/BH-1.1-O_853/*.gbw $USER@mgt01:/apps/users/lcz/exe13/RHF
scp /scratch/BH-1.1-O_853/*.xyz $USER@mgt01:/apps/users/lcz/exe13/RHF
scp /scratch/BH-1.1-O_853/*.trj $USER@mgt01:/apps/users/lcz/exe13/RHF
------------------------------------------------------------

Exited with exit code 1.

Resource usage summary:

    CPU time   :            0.02 sec.
    Max Memory :                 9 MB
    Max Processes  :               2


The output (if any) follows:

/scratch/BH-1.1-O_853/*.xyz: No such file or directory
/scratch/BH-1.1-O_853/*.trj: No such file or directory
