
                                        *****************
                                        * O   R   C   A *
                                        *****************

                                            #,                                       
                                            ###                                      
                                            ####                                     
                                            #####                                    
                                            ######                                   
                                           ########,                                 
                                     ,,################,,,,,                         
                               ,,#################################,,                 
                          ,,##########################################,,             
                       ,#########################################, ''#####,          
                    ,#############################################,,   '####,        
                  ,##################################################,,,,####,       
                ,###########''''           ''''###############################       
              ,#####''   ,,,,##########,,,,          '''####'''          '####       
            ,##' ,,,,###########################,,,                        '##       
           ' ,,###''''                  '''############,,,                           
         ,,##''                                '''############,,,,        ,,,,,,###''
      ,#''                                            '''#######################'''  
     '                                                          ''''####''''         
             ,#######,   #######,   ,#######,      ##                                
            ,#'     '#,  ##    ##  ,#'     '#,    #''#        ######   ,####,        
            ##       ##  ##   ,#'  ##            #'  '#       #        #'  '#        
            ##       ##  #######   ##           ,######,      #####,   #    #        
            '#,     ,#'  ##    ##  '#,     ,#' ,#      #,         ##   #,  ,#        
             '#######'   ##     ##  '#######'  #'      '#     #####' # '####'        



                  #######################################################
                  #                        -***-                        #
                  #          Department of theory and spectroscopy      #
                  #    Directorship and core code : Frank Neese         #
                  #        Max Planck Institute fuer Kohlenforschung    #
                  #                Kaiser Wilhelm Platz 1               #
                  #                 D-45470 Muelheim/Ruhr               #
                  #                      Germany                        #
                  #                                                     #
                  #                  All rights reserved                #
                  #                        -***-                        #
                  #######################################################


                         Program Version 5.0.0 -  RELEASE  -
                                (SVN: $Rev: 19529$)
                ($Date: 2021-06-28 11:36:33 +0200 (Mo, 28 Jun 2021) $)


 With contributions from (in alphabetic order):
   Daniel Aravena         : Magnetic Suceptibility
   Michael Atanasov       : Ab Initio Ligand Field Theory (pilot matlab implementation)
   Alexander A. Auer      : GIAO ZORA, VPT2 properties, NMR spectrum
   Ute Becker             : Parallelization
   Giovanni Bistoni       : ED, misc. LED, open-shell LED, HFLD
   Martin Brehm           : Molecular dynamics
   Dmytro Bykov           : SCF Hessian
   Vijay G. Chilkuri      : MRCI spin determinant printing, contributions to CSF-ICE
   Dipayan Datta          : RHF DLPNO-CCSD density
   Achintya Kumar Dutta   : EOM-CC, STEOM-CC
   Dmitry Ganyushin       : Spin-Orbit,Spin-Spin,Magnetic field MRCI
   Miquel Garcia          : C-PCM Hessian, Gaussian charge scheme
   Yang Guo               : DLPNO-NEVPT2, F12-NEVPT2, CIM, IAO-localization
   Andreas Hansen         : Spin unrestricted coupled pair/coupled cluster methods
   Benjamin Helmich-Paris : MC-RPA, TRAH-SCF, COSX integrals
   Lee Huntington         : MR-EOM, pCC
   Robert Izsak           : Overlap fitted RIJCOSX, COSX-SCS-MP3, EOM
   Marcus Kettner         : VPT2
   Christian Kollmar      : KDIIS, OOCD, Brueckner-CCSD(T), CCSD density, CASPT2, CASPT2-K
   Simone Kossmann        : Meta GGA functionals, TD-DFT gradient, OOMP2, MP2 Hessian
   Martin Krupicka        : Initial AUTO-CI
   Lucas Lang             : DCDCAS
   Marvin Lechner         : AUTO-CI (C++ implementation), FIC-MRCC
   Dagmar Lenk            : GEPOL surface, SMD
   Dimitrios Liakos       : Extrapolation schemes; Compound Job, initial MDCI parallelization
   Dimitrios Manganas     : Further ROCIS development; embedding schemes
   Dimitrios Pantazis     : SARC Basis sets
   Anastasios Papadopoulos: AUTO-CI, single reference methods and gradients
   Taras Petrenko         : DFT Hessian,TD-DFT gradient, ASA, ECA, R-Raman, ABS, FL, XAS/XES, NRVS
   Peter Pinski           : DLPNO-MP2, DLPNO-MP2 Gradient
   Christoph Reimann      : Effective Core Potentials
   Marius Retegan         : Local ZFS, SOC
   Christoph Riplinger    : Optimizer, TS searches, QM/MM, DLPNO-CCSD(T), (RO)-DLPNO pert. Triples
   Tobias Risthaus        : Range-separated hybrids, TD-DFT gradient, RPA, STAB
   Michael Roemelt        : Original ROCIS implementation
   Masaaki Saitow         : Open-shell DLPNO-CCSD energy and density
   Barbara Sandhoefer     : DKH picture change effects
   Avijit Sen             : IP-ROCIS
   Kantharuban Sivalingam : CASSCF convergence, NEVPT2, FIC-MRCI
   Bernardo de Souza      : ESD, SOC TD-DFT
   Georgi Stoychev        : AutoAux, RI-MP2 NMR
   Willem Van den Heuvel  : Paramagnetic NMR
   Boris Wezisla          : Elementary symmetry handling
   Frank Wennmohs         : Technical directorship


 We gratefully acknowledge several colleagues who have allowed us to
 interface, adapt or use parts of their codes:
   Stefan Grimme, W. Hujo, H. Kruse, P. Pracht,  : VdW corrections, initial TS optimization,
                  C. Bannwarth, S. Ehlert          DFT functionals, gCP, sTDA/sTD-DF
   Ed Valeev, F. Pavosevic, A. Kumar             : LibInt (2-el integral package), F12 methods
   Garnet Chan, S. Sharma, J. Yang, R. Olivares  : DMRG
   Ulf Ekstrom                                   : XCFun DFT Library
   Mihaly Kallay                                 : mrcc  (arbitrary order and MRCC methods)
   Jiri Pittner, Ondrej Demel                    : Mk-CCSD
   Frank Weinhold                                : gennbo (NPA and NBO analysis)
   Christopher J. Cramer and Donald G. Truhlar   : smd solvation model
   Lars Goerigk                                  : TD-DFT with DH, B97 family of functionals
   V. Asgeirsson, H. Jonsson                     : NEB implementation
   FAccTs GmbH                                   : IRC, NEB, NEB-TS, DLPNO-Multilevel, CI-OPT
                                                   MM, QMMM, 2- and 3-layer-ONIOM, Crystal-QMMM,
                                                   LR-CPCM, SF, NACMEs, symmetry and pop. for TD-DFT,
                                                   nearIR, NL-DFT gradient (VV10), updates on ESD,
                                                   ML-optimized integration grids
   S Lehtola, MJT Oliveira, MAL Marques          : LibXC Library
   Liviu Ungur et al                             : ANISO software


 Your calculation uses the libint2 library for the computation of 2-el integrals
 For citations please refer to: http://libint.valeyev.net

 Your ORCA version has been built with support for libXC version: 5.1.0
 For citations please refer to: https://tddft.org/programs/libxc/

 This ORCA versions uses:
   CBLAS   interface :  Fast vector & matrix operations
   LAPACKE interface :  Fast linear algebra routines
   SCALAPACK package :  Parallel linear algebra routines
   Shared memory     :  Shared parallel matrices
   BLAS/LAPACK       :  OpenBLAS 0.3.15  USE64BITINT DYNAMIC_ARCH NO_AFFINITY SkylakeX SINGLE_THREADED
        Core in use  :  SkylakeX
   Copyright (c) 2011-2014, The OpenBLAS Project


================================================================================

----- Orbital basis set information -----
Your calculation utilizes the basis: aug-cc-pVQZ 
    H, B-Ne : Obtained from the ccRepo (grant-hill.group.shef.ac.uk/ccrepo) Feb. 2017
              R. A. Kendall, T. H. Dunning, Jr., R. J. Harrison, J. Chem. Phys. 96, 6796 (1992)
         He : Obtained from the ccRepo (grant-hill.group.shef.ac.uk/ccrepo) Feb. 2017
              D. E. Woon, T. H. Dunning, Jr., J. Chem. Phys. 100, 2975 (1994)
  Li-Be, Na : Obtained from the ccRepo (grant-hill.group.shef.ac.uk/ccrepo) Feb. 2017
              B. P. Prascher, D. E. Woon, K. A. Peterson, T. H. Dunning, Jr., A. K. Wilson, Theor. Chem. Acc. 128, 69 (2011)
         Mg : Obtained from the Peterson Research Group Website (tyr0.chem.wsu.edu/~kipeters) Feb. 2017
              B. P. Prascher, D. E. Woon, K. A. Peterson, T. H. Dunning, Jr., A. K. Wilson, Theor. Chem. Acc. 128, 69 (2011)
      Al-Ar : Obtained from the ccRepo (grant-hill.group.shef.ac.uk/ccrepo) Feb. 2017
              D. E. Woon, T. H. Dunning, Jr., J. Chem. Phys. 98, 1358 (1993)
      Sc-Zn : Obtained from the ccRepo (grant-hill.group.shef.ac.uk/ccrepo) Feb. 2017
              N. B. Balabanov, K. A. Peterson, J. Chem. Phys. 123, 064107 (2005)
              N. B. Balabanov, K. A. Peterson, J. Chem. Phys. 125, 074110 (2006)
      Ga-Kr : Obtained from the ccRepo (grant-hill.group.shef.ac.uk/ccrepo) Feb. 2017
              A. K. Wilson, D. E. Woon, K. A. Peterson, T. H. Dunning, Jr., J. Chem. Phys. 110, 7667 (1999)

================================================================================
                                        WARNINGS
                       Please study these warnings very carefully!
================================================================================


INFO   : the flag for use of the SHARK integral package has been found!

================================================================================
                                       INPUT FILE
================================================================================
NAME = /scratch/BH-2.8-O_365/BH-2.8-O.inp
|  1> ! RHF aug-cc-pVQZ pal8 VeryTightSCF UseSym
|  2> 
|  3> *xyz 0 1
|  4>  B	0.0	0.0	0.0
|  5>  H	2.8	0.0	0.0
|  6> **                         ****END OF INPUT****
================================================================================

------------------------------------------------------------------------------
                            SYMMETRY HANDLING SETUP
------------------------------------------------------------------------------

------------------
SYMMETRY DETECTION
------------------
The point group will now be determined using a tolerance of 1.0000e-04.
Splitting atom subsets according to nuclear charge, mass and basis set.
Splitting atom subsets according to distance from the molecule's center.
Identifying relative distance patterns of the atoms.
Splitting atom subsets according to atoms' relative distance patterns.
Bring atoms of each subset into input order.
The molecule is linear.
There is at least one atom subset not centered around the molecule's center.
The molecule does not have a center of inversion.
No further test is needed for point group Cinfv.
This point group has been found:    Cinfv
Largest non-degenerate subgroup:    C2v


Mass-centered symmetry-perfected Cartesians (point groups Cinfv and C2v):

Atom          Symmetry-perfected Cartesians (x, y, z; au)
  0       0.000000000000    0.000000000000   -0.451308431239
  1       0.000000000000    0.000000000000    4.839924743741


-----------------------------------------------
SYMMETRY-PERFECTED CARTESIAN COORDINATES (A.U.)
-----------------------------------------------
Warning (ORCA_SYM): Coordinates were not cleaned so far!

------------------
SYMMETRY REDUCTION
------------------
ORCA supports only abelian point groups.
It is now checked, if the determined point group is supported:
Point Group ( C2v   ) is          ... supported

(Re)building abelian point group:
Creating Character Table          ... done
Making direct product table       ... done
Constructing symmetry operations  ... done
Creating atom transfer table      ... done
Creating asymmetric unit          ... done

----------------------
ASYMMETRIC UNIT IN C2v
----------------------
  #  AT     MASS              COORDS (A.U.)             BAS
   0 B   10.8100   0.00000000   0.00000000  -0.45130843   0
   1 H    1.0080   0.00000000   0.00000000   4.83992474   0

----------------------
SYMMETRY ADAPTED BASIS
----------------------
The coefficients for the symmetry adapted linear combinations (SALCS)
of basis functions will now be computed:
Number of basis functions         ...   126
Preparing memory                  ... done
Constructing Gamma(red)           ... done
Reducing Gamma(red)               ... done
Constructing SALCs                ... done
Checking SALC integrity           ... nothing suspicious
Normalizing SALCs                 ... done

Storing the symmetry object:
Symmetry file                     ... /scratch/BH-2.8-O_365/BH-2.8-O.sym.tmp
Writing symmetry information      ... done

                       ****************************
                       * Single Point Calculation *
                       ****************************

---------------------------------
CARTESIAN COORDINATES (ANGSTROEM)
---------------------------------
  B      0.000000    0.000000   -0.238822
  H      0.000000    0.000000    2.561178

----------------------------
CARTESIAN COORDINATES (A.U.)
----------------------------
  NO LB      ZA    FRAG     MASS         X           Y           Z
   0 B     5.0000    0    10.810    0.000000    0.000000   -0.451308
   1 H     1.0000    0     1.008    0.000000    0.000000    4.839925

--------------------------------
INTERNAL COORDINATES (ANGSTROEM)
--------------------------------
 B      0   0   0     0.000000000000     0.00000000     0.00000000
 H      1   0   0     2.800000000000     0.00000000     0.00000000

---------------------------
INTERNAL COORDINATES (A.U.)
---------------------------
 B      0   0   0     0.000000000000     0.00000000     0.00000000
 H      1   0   0     5.291233174980     0.00000000     0.00000000

---------------------
BASIS SET INFORMATION
---------------------
There are 2 groups of distinct atoms

 Group   1 Type B   : 22s7p4d3f2g contracted to 6s5p4d3f2g pattern {991111/31111/1111/111/11}
 Group   2 Type H   : 7s4p3d2f contracted to 5s4p3d2f pattern {31111/1111/111/11}

Atom   0B    basis set group =>   1
Atom   1H    basis set group =>   2
--------------------------------------------------------------------------
WARNING: There was an error initializing an OpenFabrics device.

  Local host:   cnode04
  Local device: mlx5_0
--------------------------------------------------------------------------


           ************************************************************
           *        Program running with 8 parallel MPI-processes     *
           *              working on a common directory               *
           ************************************************************
------------------------------------------------------------------------------
                           ORCA GTO INTEGRAL CALCULATION
------------------------------------------------------------------------------
------------------------------------------------------------------------------
                   ___                                                        
                  /   \      - P O W E R E D   B Y -                         
                 /     \                                                     
                 |  |  |   _    _      __       _____    __    __             
                 |  |  |  | |  | |    /  \     |  _  \  |  |  /  |          
                  \  \/   | |  | |   /    \    | | | |  |  | /  /          
                 / \  \   | |__| |  /  /\  \   | |_| |  |  |/  /          
                |  |  |   |  __  | /  /__\  \  |    /   |      \           
                |  |  |   | |  | | |   __   |  |    \   |  |\   \          
                \     /   | |  | | |  |  |  |  | |\  \  |  | \   \       
                 \___/    |_|  |_| |__|  |__|  |_| \__\ |__|  \__/        
                                                                              
                      - O R C A' S   B I G   F R I E N D -                    
                                      &                                       
                       - I N T E G R A L  F E E D E R -                       
                                                                              
 v1 FN, 2020, v2 2021                                                         
------------------------------------------------------------------------------


Reading SHARK input file /scratch/BH-2.8-O_365/BH-2.8-O.SHARKINP.tmp ... ok
----------------------
SHARK INTEGRAL PACKAGE
----------------------

Number of atoms                             ...      2
Number of basis functions                   ...    126
Number of shells                            ...     34
Maximum angular momentum                    ...      4
Integral batch strategy                     ... SHARK/LIBINT Hybrid
RI-J (if used) integral strategy            ... SPLIT-RIJ (Revised 2003 algorithm where possible)
Printlevel                                  ...      1
Contraction scheme used                     ... SEGMENTED contraction
Coulomb Range Separation                    ... NOT USED
Exchange Range Separation                   ... NOT USED
Finite Nucleus Model                        ... NOT USED
Auxiliary Coulomb fitting basis             ... NOT available
Auxiliary J/K fitting basis                 ... NOT available
Auxiliary Correlation fitting basis         ... NOT available
Auxiliary 'external' fitting basis          ... NOT available
Integral threshold                          ...     1.000000e-12
Primitive cut-off                           ...     1.000000e-14
Primitive pair pre-selection threshold      ...     1.000000e-14

Calculating pre-screening integrals         ... done (  0.1 sec) Dimension = 34
Organizing shell pair data                  ... done (  0.0 sec)
Shell pair information
Total number of shell pairs                 ...       595
Shell pairs after pre-screening             ...       595
Total number of primitive shell pairs       ...      1563
Primitive shell pairs kept                  ...      1456
          la=0 lb=0:     66 shell pairs
          la=1 lb=0:     99 shell pairs
          la=1 lb=1:     45 shell pairs
          la=2 lb=0:     77 shell pairs
          la=2 lb=1:     63 shell pairs
          la=2 lb=2:     28 shell pairs
          la=3 lb=0:     55 shell pairs
          la=3 lb=1:     45 shell pairs
          la=3 lb=2:     35 shell pairs
          la=3 lb=3:     15 shell pairs
          la=4 lb=0:     22 shell pairs
          la=4 lb=1:     18 shell pairs
          la=4 lb=2:     14 shell pairs
          la=4 lb=3:     10 shell pairs
          la=4 lb=4:      3 shell pairs

Calculating one electron integrals          ... done (  0.0 sec)
Calculating Nuclear repulsion               ... done (  0.0 sec) ENN=      0.944959300536 Eh

SHARK setup successfully completed in   0.1 seconds

Maximum memory used throughout the entire GTOINT-calculation: 28.9 MB
[cnode04:424916] 7 more processes have sent help message help-mpi-btl-openib.txt / error in device init
[cnode04:424916] Set MCA parameter "orte_base_help_aggregate" to 0 to see all help / error messages
--------------------------------------------------------------------------
WARNING: There was an error initializing an OpenFabrics device.

  Local host:   cnode04
  Local device: mlx5_0
--------------------------------------------------------------------------


           ************************************************************
           *        Program running with 8 parallel MPI-processes     *
           *              working on a common directory               *
           ************************************************************
-------------------------------------------------------------------------------
                                 ORCA SCF
-------------------------------------------------------------------------------

------------
SCF SETTINGS
------------
Hamiltonian:
 Ab initio Hamiltonian  Method          .... Hartree-Fock(GTOs)


General Settings:
 Integral files         IntName         .... /scratch/BH-2.8-O_365/BH-2.8-O
 Hartree-Fock type      HFTyp           .... RHF
 Total Charge           Charge          ....    0
 Multiplicity           Mult            ....    1
 Number of Electrons    NEL             ....    6
 Basis Dimension        Dim             ....  126
 Nuclear Repulsion      ENuc            ....      0.9449593005 Eh

 Symmetry handling      UseSym         .... ON
 Point group                           .... C2v
 Used point group                      .... C2v
 Number of irreps                      .... 4
   Irrep   A1 has   50 symmetry adapted basis functions (ofs=   0)
   Irrep   A2 has   16 symmetry adapted basis functions (ofs=  50)
   Irrep   B1 has   30 symmetry adapted basis functions (ofs=  66)
   Irrep   B2 has   30 symmetry adapted basis functions (ofs=  96)

Convergence Acceleration:
 DIIS                   CNVDIIS         .... on
   Start iteration      DIISMaxIt       ....    12
   Startup error        DIISStart       ....  0.200000
   # of expansion vecs  DIISMaxEq       ....     5
   Bias factor          DIISBfac        ....   1.050
   Max. coefficient     DIISMaxC        ....  10.000
 Trust-Rad. Augm. Hess. CNVTRAH         .... auto
   Auto Start mean grad. ratio tolernc. ....  1.125000
   Auto Start start iteration           ....    20
   Auto Start num. interpolation iter.  ....    10
   Max. Number of Micro iterations      ....    16
   Max. Number of Macro iterations      .... Maxiter - #DIIS iter
   Number of Davidson start vectors     ....     2
   Converg. threshold I  (grad. norm)   ....   2.000e-06
   Converg. threshold II (energy diff.) ....   1.000e-09
   Grad. Scal. Fac. for Micro threshold ....   0.100
   Minimum threshold for Micro iter.    ....   0.010
   NR start threshold (gradient norm)   ....   0.001
   Initial trust radius                 ....   0.400
   Minimum AH scaling param. (alpha)    ....   1.000
   Maximum AH scaling param. (alpha)    .... 1000.000
   Orbital update algorithm             .... Taylor
   White noise on init. David. guess    .... on
   Maximum white noise                  ....   0.010
   Quad. conv. algorithm                .... NR
 SOSCF                  CNVSOSCF        .... on
   Start iteration      SOSCFMaxIt      ....   150
   Startup grad/error   SOSCFStart      ....  0.003300
 Level Shifting         CNVShift        .... on
   Level shift para.    LevelShift      ....    0.2500
   Turn off err/grad.   ShiftErr        ....    0.0010
 Zerner damping         CNVZerner       .... off
 Static damping         CNVDamp         .... on
   Fraction old density DampFac         ....    0.7000
   Max. Damping (<1)    DampMax         ....    0.9800
   Min. Damping (>=0)   DampMin         ....    0.0000
   Turn off err/grad.   DampErr         ....    0.1000
 Fernandez-Rico         CNVRico         .... off

SCF Procedure:
 Maximum # iterations   MaxIter         ....   125
 SCF integral mode      SCFMode         .... Direct
   Integral package                     .... SHARK and LIBINT hybrid scheme
 Reset frequency        DirectResetFreq ....    20
 Integral Threshold     Thresh          ....  1.000e-12 Eh
 Primitive CutOff       TCut            ....  1.000e-14 Eh

Convergence Tolerance:
 Convergence Check Mode ConvCheckMode   .... Total+1el-Energy
 Convergence forced     ConvForced      .... 0
 Energy Change          TolE            ....  1.000e-09 Eh
 1-El. energy change                    ....  1.000e-06 Eh
 Orbital Gradient       TolG            ....  2.000e-06
 Orbital Rotation angle TolX            ....  2.000e-06
 DIIS Error             TolErr          ....  1.000e-08


Diagonalization of the overlap matrix:
Smallest eigenvalue                        ... 1.637e-03
Time for diagonalization                   ...    0.002 sec
Threshold for overlap eigenvalues          ... 1.000e-08
Number of eigenvalues below threshold      ... 0
Time for construction of square roots      ...    0.002 sec
Producing symmetrization matrix            ... done (   0.000 sec)
Total time needed                          ...    0.004 sec

Time for model grid setup =    0.007 sec

------------------------------
INITIAL GUESS: MODEL POTENTIAL
------------------------------
Loading Hartree-Fock densities                     ... done
Calculating cut-offs                               ... done
Initializing the effective Hamiltonian             ... done
Setting up the integral package (SHARK)            ... done
Starting the Coulomb interaction                   ... done (   0.0 sec)
Reading the grid                                   ... done
Mapping shells                                     ... done
Starting the XC term evaluation                    ... done (   0.0 sec)
done (   0.0 sec)
Diagonalizing the Hamiltonian                      ... done (   0.0 sec)
Back transforming the eigenvectors                 ... done (   0.0 sec)
Now organizing SCF variables                       ... done
The symmetry of the initial guess is 1-A1
Irrep occupations for operator 0
    A1 -    3
    A2 -    0
    B1 -    0
    B2 -    0
                      ------------------
                      INITIAL GUESS DONE (   0.0 sec)
                      ------------------
--------------
SCF ITERATIONS
--------------
ITER       Energy         Delta-E        Max-DP      RMS-DP      [F,P]     Damp
               ***  Starting incremental Fock matrix formation  ***
  0    -24.9069961795   0.000000000000 0.04413555  0.00075454  0.1600680 0.7000
  1    -24.9247711644  -0.017774984902 0.03264711  0.00068386  0.1268204 0.7000
                               ***Turning on DIIS***
  2    -24.9390181178  -0.014246953404 0.08576339  0.00175315  0.0914175 0.0000
  3    -24.9853731273  -0.046355009587 0.01389427  0.00025425  0.0172413 0.0000
  4    -24.9796384740   0.005734653311 0.00554914  0.00013296  0.0062333 0.0000
                      *** Initiating the SOSCF procedure ***
                           *** Shutting down DIIS ***
                      *** Re-Reading the Fockian *** 
                      *** Removing any level shift *** 
ITER      Energy       Delta-E        Grad      Rot      Max-DP    RMS-DP
  5    -24.97281305   0.0068254193  0.002519  0.002519  0.003831  0.000061
               *** Restarting incremental Fock matrix formation ***
  6    -24.96995133   0.0028617270  0.000766  0.001335  0.001206  0.000032
  7    -24.96995732  -0.0000059932  0.000265  0.000830  0.000836  0.000021
  8    -24.96995850  -0.0000011803  0.000051  0.000082  0.000100  0.000002
  9    -24.96995852  -0.0000000168  0.000007  0.000023  0.000026  0.000001
 10    -24.96995852  -0.0000000012  0.000001  0.000006  0.000004  0.000000
                 **** Energy Check signals convergence ****
              ***Rediagonalizing the Fockian in SOSCF/NRSCF***

               *****************************************************
               *                     SUCCESS                       *
               *           SCF CONVERGED AFTER  11 CYCLES          *
               *****************************************************


----------------
TOTAL SCF ENERGY
----------------

Total Energy       :          -24.96995852 Eh            -679.46711 eV

Components:
Nuclear Repulsion  :            0.94495930 Eh              25.71365 eV
Electronic Energy  :          -25.91491782 Eh            -705.18076 eV
One Electron Energy:          -34.40452679 Eh            -936.19477 eV
Two Electron Energy:            8.48960897 Eh             231.01400 eV

Virial components:
Potential Energy   :          -49.72094728 Eh           -1352.97576 eV
Kinetic Energy     :           24.75098876 Eh             673.50864 eV
Virial Ratio       :            2.00884691


---------------
SCF CONVERGENCE
---------------

  Last Energy change         ...   -4.8036e-11  Tolerance :   1.0000e-09
  Last MAX-Density change    ...    1.2712e-06  Tolerance :   1.0000e-08
  Last RMS-Density change    ...    1.6658e-08  Tolerance :   1.0000e-09
  Last Orbital Gradient      ...    1.7016e-07  Tolerance :   2.0000e-06
  Last Orbital Rotation      ...    3.4466e-07  Tolerance :   2.0000e-06

             **** THE GBW FILE WAS UPDATED (/scratch/BH-2.8-O_365/BH-2.8-O.gbw) ****
             **** DENSITY /scratch/BH-2.8-O_365/BH-2.8-O.scfp WAS UPDATED ****
             **** ENERGY FILE WAS UPDATED (/scratch/BH-2.8-O_365/BH-2.8-O.en.tmp) ****
             **** THE GBW FILE WAS UPDATED (/scratch/BH-2.8-O_365/BH-2.8-O.gbw) ****
             **** DENSITY /scratch/BH-2.8-O_365/BH-2.8-O.scfp WAS UPDATED ****
----------------
ORBITAL ENERGIES
----------------

  NO   OCC          E(Eh)            E(eV)    Irrep 
   0   2.0000      -7.845203      -213.4788    1-A1
   1   2.0000      -0.582462       -15.8496    2-A1
   2   2.0000      -0.284990        -7.7550    3-A1
   3   0.0000      -0.014756        -0.4015    1-B1
   4   0.0000      -0.014756        -0.4015    1-B2
   5   0.0000      -0.008442        -0.2297    4-A1
   6   0.0000       0.036503         0.9933    5-A1
   7   0.0000       0.053387         1.4527    2-B2
   8   0.0000       0.053387         1.4527    2-B1
   9   0.0000       0.070016         1.9052    6-A1
  10   0.0000       0.085568         2.3284    7-A1
  11   0.0000       0.133475         3.6321    8-A1
  12   0.0000       0.133475         3.6321    1-A2
  13   0.0000       0.137670         3.7462    3-B2
  14   0.0000       0.137670         3.7462    3-B1
  15   0.0000       0.171043         4.6543    9-A1
  16   0.0000       0.256859         6.9895    4-B2
  17   0.0000       0.256859         6.9895    4-B1
  18   0.0000       0.282125         7.6770   10-A1
  19   0.0000       0.286024         7.7831    5-B2
  20   0.0000       0.286024         7.7831    5-B1
  21   0.0000       0.298029         8.1098   11-A1
  22   0.0000       0.338297         9.2055   12-A1
  23   0.0000       0.438270        11.9259    6-B1
  24   0.0000       0.438270        11.9259    6-B2
  25   0.0000       0.445460        12.1216   13-A1
  26   0.0000       0.445460        12.1216    2-A2
  27   0.0000       0.461924        12.5696    3-A2
  28   0.0000       0.461924        12.5696   14-A1
  29   0.0000       0.462545        12.5865    7-B2
  30   0.0000       0.462545        12.5865    7-B1
  31   0.0000       0.478850        13.0302   15-A1
  32   0.0000       0.511837        13.9278    8-B2
  33   0.0000       0.511837        13.9278    8-B1
  34   0.0000       0.552515        15.0347   16-A1
  35   0.0000       0.612588        16.6694   17-A1
  36   0.0000       0.718586        19.5537   18-A1
  37   0.0000       0.718586        19.5537    4-A2
  38   0.0000       0.857267        23.3274    9-B1
  39   0.0000       0.857267        23.3274    9-B2
  40   0.0000       0.869554        23.6618   19-A1
  41   0.0000       0.888041        24.1648   10-B2
  42   0.0000       0.888041        24.1648   10-B1
  43   0.0000       0.926811        25.2198   20-A1
  44   0.0000       0.980019        26.6677   11-B1
  45   0.0000       0.980019        26.6677   11-B2
  46   0.0000       1.199123        32.6298   21-A1
  47   0.0000       1.325863        36.0786    5-A2
  48   0.0000       1.325863        36.0786   22-A1
  49   0.0000       1.330440        36.2031   23-A1
  50   0.0000       1.330440        36.2031    6-A2
  51   0.0000       1.332939        36.2711   12-B2
  52   0.0000       1.332939        36.2711   12-B1
  53   0.0000       1.339593        36.4522   24-A1
  54   0.0000       1.339593        36.4522    7-A2
  55   0.0000       1.343382        36.5553   25-A1
  56   0.0000       1.346095        36.6291   13-B2
  57   0.0000       1.346095        36.6291   13-B1
  58   0.0000       1.367911        37.2228   26-A1
  59   0.0000       1.381945        37.6046   14-B1
  60   0.0000       1.381945        37.6046   14-B2
  61   0.0000       1.386324        37.7238   15-B1
  62   0.0000       1.386324        37.7238   15-B2
  63   0.0000       1.405373        38.2421   27-A1
  64   0.0000       1.405373        38.2421    8-A2
  65   0.0000       1.481528        40.3144   28-A1
  66   0.0000       1.533248        41.7218   16-B2
  67   0.0000       1.533248        41.7218   16-B1
  68   0.0000       1.642244        44.6877   17-B1
  69   0.0000       1.642244        44.6877   17-B2
  70   0.0000       1.679395        45.6987   29-A1
  71   0.0000       1.775245        48.3069   30-A1
  72   0.0000       1.775245        48.3069    9-A2
  73   0.0000       1.882949        51.2377   31-A1
  74   0.0000       2.034675        55.3663   18-B2
  75   0.0000       2.034675        55.3663   18-B1
  76   0.0000       2.034777        55.3691   32-A1
  77   0.0000       2.570820        69.9556   33-A1
  78   0.0000       2.570820        69.9556   10-A2
  79   0.0000       2.683230        73.0144   19-B1
  80   0.0000       2.683230        73.0144   19-B2
  81   0.0000       2.730537        74.3017   20-B1
  82   0.0000       2.730537        74.3017   20-B2
  83   0.0000       2.805740        76.3481   34-A1
  84   0.0000       3.003945        81.7415   35-A1
  85   0.0000       3.631785        98.8259   21-B1
  86   0.0000       3.631785        98.8259   21-B2
  87   0.0000       3.819681       103.9388   36-A1
  88   0.0000       3.839614       104.4812   37-A1
  89   0.0000       3.839614       104.4812   11-A2
  90   0.0000       3.850312       104.7723   38-A1
  91   0.0000       3.850312       104.7723   12-A2
  92   0.0000       3.854885       104.8967   22-B1
  93   0.0000       3.854885       104.8967   22-B2
  94   0.0000       3.868797       105.2753   23-B1
  95   0.0000       3.868797       105.2753   23-B2
  96   0.0000       3.898189       106.0751   39-A1
  97   0.0000       3.898189       106.0751   13-A2
  98   0.0000       3.913065       106.4799   40-A1
  99   0.0000       3.992059       108.6294   24-B2
 100   0.0000       3.992059       108.6294   24-B1
 101   0.0000       4.011854       109.1681   41-A1
 102   0.0000       4.011854       109.1681   14-A2
 103   0.0000       4.013835       109.2220   25-B1
 104   0.0000       4.013835       109.2220   25-B2
 105   0.0000       4.079415       111.0065   26-B1
 106   0.0000       4.079415       111.0065   26-B2
 107   0.0000       4.130122       112.3863   42-A1
 108   0.0000       4.303872       117.1143   43-A1
 109   0.0000       6.648173       180.9060   27-B1
 110   0.0000       6.648173       180.9060   27-B2
 111   0.0000       6.681703       181.8184   44-A1
 112   0.0000       6.681703       181.8184   15-A2
 113   0.0000       6.773223       184.3088   28-B1
 114   0.0000       6.773223       184.3088   28-B2
 115   0.0000       6.799030       185.0110   45-A1
 116   0.0000       7.632161       207.6817   46-A1
 117   0.0000       8.075024       219.7326   29-B2
 118   0.0000       8.075024       219.7326   29-B1
 119   0.0000       8.374932       227.8935   47-A1
 120   0.0000       8.501406       231.3350   48-A1
 121   0.0000       8.501406       231.3350   16-A2
 122   0.0000       8.574294       233.3184   30-B1
 123   0.0000       8.574294       233.3184   30-B2
 124   0.0000       8.672705       235.9963   49-A1
 125   0.0000      13.031538       354.6062   50-A1

                    ********************************
                    * MULLIKEN POPULATION ANALYSIS *
                    ********************************

-----------------------
MULLIKEN ATOMIC CHARGES
-----------------------
   0 B :    0.274884
   1 H :   -0.274884
Sum of atomic charges:    0.0000000

--------------------------------
MULLIKEN REDUCED ORBITAL CHARGES
--------------------------------
  0 B s       :     3.987779  s :     3.987779
      pz      :     0.702487  p :     0.702487
      px      :     0.000000
      py      :     0.000000
      dz2     :     0.031949  d :     0.031949
      dxz     :     0.000000
      dyz     :     0.000000
      dx2y2   :     0.000000
      dxy     :     0.000000
      f0      :     0.002757  f :     0.002757
      f+1     :    -0.000000
      f-1     :     0.000000
      f+2     :     0.000000
      f-2     :     0.000000
      f+3     :     0.000000
      f-3     :     0.000000
      g0      :     0.000144  g :     0.000144
      g+1     :     0.000000
      g-1     :     0.000000
      g+2     :     0.000000
      g-2     :     0.000000
      g+3     :     0.000000
      g-3     :     0.000000
      g+4     :     0.000000
      g-4     :     0.000000
  1 H s       :     1.265962  s :     1.265962
      pz      :     0.008433  p :     0.008433
      px      :     0.000000
      py      :     0.000000
      dz2     :     0.000511  d :     0.000511
      dxz     :     0.000000
      dyz     :     0.000000
      dx2y2   :     0.000000
      dxy     :     0.000000
      f0      :    -0.000021  f :    -0.000021
      f+1     :     0.000000
      f-1     :     0.000000
      f+2     :     0.000000
      f-2     :     0.000000
      f+3     :     0.000000
      f-3     :     0.000000


                     *******************************
                     * LOEWDIN POPULATION ANALYSIS *
                     *******************************

----------------------
LOEWDIN ATOMIC CHARGES
----------------------
   0 B :    0.220184
   1 H :   -0.220184

-------------------------------
LOEWDIN REDUCED ORBITAL CHARGES
-------------------------------
  0 B s       :     3.920355  s :     3.920355
      pz      :     0.759901  p :     0.759901
      px      :     0.000000
      py      :     0.000000
      dz2     :     0.075973  d :     0.075973
      dxz     :     0.000000
      dyz     :     0.000000
      dx2y2   :     0.000000
      dxy     :     0.000000
      f0      :     0.022084  f :     0.022084
      f+1     :     0.000000
      f-1     :     0.000000
      f+2     :     0.000000
      f-2     :     0.000000
      f+3     :     0.000000
      f-3     :     0.000000
      g0      :     0.001502  g :     0.001502
      g+1     :     0.000000
      g-1     :     0.000000
      g+2     :     0.000000
      g-2     :     0.000000
      g+3     :     0.000000
      g-3     :     0.000000
      g+4     :     0.000000
      g-4     :     0.000000
  1 H s       :     1.146257  s :     1.146257
      pz      :     0.053107  p :     0.053107
      px      :     0.000000
      py      :     0.000000
      dz2     :     0.018514  d :     0.018514
      dxz     :     0.000000
      dyz     :     0.000000
      dx2y2   :     0.000000
      dxy     :     0.000000
      f0      :     0.002306  f :     0.002306
      f+1     :     0.000000
      f-1     :     0.000000
      f+2     :     0.000000
      f-2     :     0.000000
      f+3     :     0.000000
      f-3     :     0.000000


                      *****************************
                      * MAYER POPULATION ANALYSIS *
                      *****************************

  NA   - Mulliken gross atomic population
  ZA   - Total nuclear charge
  QA   - Mulliken gross atomic charge
  VA   - Mayer's total valence
  BVA  - Mayer's bonded valence
  FA   - Mayer's free valence

  ATOM       NA         ZA         QA         VA         BVA        FA
  0 B      4.7251     5.0000     0.2749     0.9316     0.9316     0.0000
  1 H      1.2749     1.0000    -0.2749     0.9316     0.9316    -0.0000

  Mayer bond orders larger than 0.100000
B(  0-B ,  1-H ) :   0.9316 

-------
TIMINGS
-------

Total SCF time: 0 days 0 hours 0 min 2 sec 

Total time                  ....       2.388 sec
Sum of individual times     ....       2.229 sec  ( 93.3%)

Fock matrix formation       ....       2.161 sec  ( 90.5%)
Diagonalization             ....       0.022 sec  (  0.9%)
Density matrix formation    ....       0.001 sec  (  0.1%)
Population analysis         ....       0.004 sec  (  0.1%)
Initial guess               ....       0.007 sec  (  0.3%)
Orbital Transformation      ....       0.000 sec  (  0.0%)
Orbital Orthonormalization  ....       0.000 sec  (  0.0%)
DIIS solution               ....       0.013 sec  (  0.6%)
SOSCF solution              ....       0.013 sec  (  0.6%)

Maximum memory used throughout the entire SCF-calculation: 228.5 MB
[cnode04:424976] 7 more processes have sent help message help-mpi-btl-openib.txt / error in device init
[cnode04:424976] Set MCA parameter "orte_base_help_aggregate" to 0 to see all help / error messages

-------------------------   --------------------
FINAL SINGLE POINT ENERGY       -24.969958519350
-------------------------   --------------------


                            ***************************************
                            *     ORCA property calculations      *
                            ***************************************

                                    ---------------------
                                    Active property flags
                                    ---------------------
   (+) Dipole Moment


------------------------------------------------------------------------------
                       ORCA ELECTRIC PROPERTIES CALCULATION
------------------------------------------------------------------------------

Dipole Moment Calculation                       ... on
Quadrupole Moment Calculation                   ... off
Polarizability Calculation                      ... off
GBWName                                         ... /scratch/BH-2.8-O_365/BH-2.8-O.gbw
Electron density file                           ... /scratch/BH-2.8-O_365/BH-2.8-O.scfp
The origin for moment calculation is the CENTER OF MASS  = ( 0.000000,  0.000000  0.000000)

-------------
DIPOLE MOMENT
-------------
                                X             Y             Z
Electronic contribution:     -0.00000       0.00000      -4.35535
Nuclear contribution   :      0.00000       0.00000       2.58338
                        -----------------------------------------
Total Dipole Moment    :     -0.00000       0.00000      -1.77196
                        -----------------------------------------
Magnitude (a.u.)       :      1.77196
Magnitude (Debye)      :      4.50397



--------------------
Rotational spectrum 
--------------------
 
Rotational constants in cm-1:     0.000000     2.332054     2.332054 
Rotational constants in MHz :     0.000000 69913.219342 69913.219342 

 Dipole components along the rotational axes: 
x,y,z [a.u.] :    -1.771964     0.000000    -0.000000 
x,y,z [Debye]:    -4.503973     0.000000    -0.000000 

 
--------------------------------------------------------------------------
WARNING: There was an error initializing an OpenFabrics device.

  Local host:   cnode04
  Local device: mlx5_0
--------------------------------------------------------------------------
[cnode04:425115] 7 more processes have sent help message help-mpi-btl-openib.txt / error in device init
[cnode04:425115] Set MCA parameter "orte_base_help_aggregate" to 0 to see all help / error messages

Timings for individual modules:

Sum of individual times         ...        3.284 sec (=   0.055 min)
GTO integral calculation        ...        0.510 sec (=   0.009 min)  15.5 %
SCF iterations                  ...        2.774 sec (=   0.046 min)  84.5 %
                             ****ORCA TERMINATED NORMALLY****
TOTAL RUN TIME: 0 days 0 hours 0 minutes 3 seconds 715 msec

Sender: Unischeduler System <lcz@mgt01>
Subject: Job 133498: <#!/bin/bash
#BSUB -J intel
#BSUB -o BH-2.8-O.out
#BSUB -n 8
#BSUB -q cqueue
export LD_LIBRARY_PATH=/apps/software/openmpi-4.1.1/lib:/apps/software/orca_5_0_0:$LD_LIBRARY_PATH
export PATH=/apps/software/openmpi-4.1.1/bin:/apps/software/orca_5_0_0:$PATH
mkdir /scratch/BH-2.8-O_365
scp $USER@mgt01:/apps/users/lcz/exe13/RHF/BH-2.8-O.inp /scratch/BH-2.8-O_365
/apps/software/orca_5_0_0/orca /scratch/BH-2.8-O_365/BH-2.8-O.inp >& BH-2.8-O.out
scp /scratch/BH-2.8-O_365/*.gbw $USER@mgt01:/apps/users/lcz/exe13/RHF
scp /scratch/BH-2.8-O_365/*.xyz $USER@mgt01:/apps/users/lcz/exe13/RHF
scp /scratch/BH-2.8-O_365/*.trj $USER@mgt01:/apps/users/lcz/exe13/RHF> Exited

Job <#!/bin/bash
#BSUB -J intel
#BSUB -o BH-2.8-O.out
#BSUB -n 8
#BSUB -q cqueue
export LD_LIBRARY_PATH=/apps/software/openmpi-4.1.1/lib:/apps/software/orca_5_0_0:$LD_LIBRARY_PATH
export PATH=/apps/software/openmpi-4.1.1/bin:/apps/software/orca_5_0_0:$PATH
mkdir /scratch/BH-2.8-O_365
scp $USER@mgt01:/apps/users/lcz/exe13/RHF/BH-2.8-O.inp /scratch/BH-2.8-O_365
/apps/software/orca_5_0_0/orca /scratch/BH-2.8-O_365/BH-2.8-O.inp >& BH-2.8-O.out
scp /scratch/BH-2.8-O_365/*.gbw $USER@mgt01:/apps/users/lcz/exe13/RHF
scp /scratch/BH-2.8-O_365/*.xyz $USER@mgt01:/apps/users/lcz/exe13/RHF
scp /scratch/BH-2.8-O_365/*.trj $USER@mgt01:/apps/users/lcz/exe13/RHF> was submitted from host <mgt01> by user <lcz>.
Job was executed on host(s) <8*cnode04>, in queue <cqueue>, as user <lcz>.
</apps/users/lcz> was used as the home directory.
</apps/users/lcz/exe13/RHF> was used as the working directory.
Started at 2022-05-21 17:12:18
Results reported at 2022-05-21 17:12:24

Your job looked like:

------------------------------------------------------------
# User input
#!/bin/bash
#BSUB -J intel
#BSUB -o BH-2.8-O.out
#BSUB -n 8
#BSUB -q cqueue
export LD_LIBRARY_PATH=/apps/software/openmpi-4.1.1/lib:/apps/software/orca_5_0_0:$LD_LIBRARY_PATH
export PATH=/apps/software/openmpi-4.1.1/bin:/apps/software/orca_5_0_0:$PATH
mkdir /scratch/BH-2.8-O_365
scp $USER@mgt01:/apps/users/lcz/exe13/RHF/BH-2.8-O.inp /scratch/BH-2.8-O_365
/apps/software/orca_5_0_0/orca /scratch/BH-2.8-O_365/BH-2.8-O.inp >& BH-2.8-O.out
scp /scratch/BH-2.8-O_365/*.gbw $USER@mgt01:/apps/users/lcz/exe13/RHF
scp /scratch/BH-2.8-O_365/*.xyz $USER@mgt01:/apps/users/lcz/exe13/RHF
scp /scratch/BH-2.8-O_365/*.trj $USER@mgt01:/apps/users/lcz/exe13/RHF
------------------------------------------------------------

Exited with exit code 1.

Resource usage summary:

    CPU time   :             6.9 sec.
    Max Memory :               878 MB
    Max Processes  :              13


The output (if any) follows:

/scratch/BH-2.8-O_365/*.xyz: No such file or directory
/scratch/BH-2.8-O_365/*.trj: No such file or directory
