
                                        *****************
                                        * O   R   C   A *
                                        *****************

                                            #,                                       
                                            ###                                      
                                            ####                                     
                                            #####                                    
                                            ######                                   
                                           ########,                                 
                                     ,,################,,,,,                         
                               ,,#################################,,                 
                          ,,##########################################,,             
                       ,#########################################, ''#####,          
                    ,#############################################,,   '####,        
                  ,##################################################,,,,####,       
                ,###########''''           ''''###############################       
              ,#####''   ,,,,##########,,,,          '''####'''          '####       
            ,##' ,,,,###########################,,,                        '##       
           ' ,,###''''                  '''############,,,                           
         ,,##''                                '''############,,,,        ,,,,,,###''
      ,#''                                            '''#######################'''  
     '                                                          ''''####''''         
             ,#######,   #######,   ,#######,      ##                                
            ,#'     '#,  ##    ##  ,#'     '#,    #''#        ######   ,####,        
            ##       ##  ##   ,#'  ##            #'  '#       #        #'  '#        
            ##       ##  #######   ##           ,######,      #####,   #    #        
            '#,     ,#'  ##    ##  '#,     ,#' ,#      #,         ##   #,  ,#        
             '#######'   ##     ##  '#######'  #'      '#     #####' # '####'        



                  #######################################################
                  #                        -***-                        #
                  #          Department of theory and spectroscopy      #
                  #    Directorship and core code : Frank Neese         #
                  #        Max Planck Institute fuer Kohlenforschung    #
                  #                Kaiser Wilhelm Platz 1               #
                  #                 D-45470 Muelheim/Ruhr               #
                  #                      Germany                        #
                  #                                                     #
                  #                  All rights reserved                #
                  #                        -***-                        #
                  #######################################################


                         Program Version 5.0.0 -  RELEASE  -
                                (SVN: $Rev: 19529$)
                ($Date: 2021-06-28 11:36:33 +0200 (Mo, 28 Jun 2021) $)


 With contributions from (in alphabetic order):
   Daniel Aravena         : Magnetic Suceptibility
   Michael Atanasov       : Ab Initio Ligand Field Theory (pilot matlab implementation)
   Alexander A. Auer      : GIAO ZORA, VPT2 properties, NMR spectrum
   Ute Becker             : Parallelization
   Giovanni Bistoni       : ED, misc. LED, open-shell LED, HFLD
   Martin Brehm           : Molecular dynamics
   Dmytro Bykov           : SCF Hessian
   Vijay G. Chilkuri      : MRCI spin determinant printing, contributions to CSF-ICE
   Dipayan Datta          : RHF DLPNO-CCSD density
   Achintya Kumar Dutta   : EOM-CC, STEOM-CC
   Dmitry Ganyushin       : Spin-Orbit,Spin-Spin,Magnetic field MRCI
   Miquel Garcia          : C-PCM Hessian, Gaussian charge scheme
   Yang Guo               : DLPNO-NEVPT2, F12-NEVPT2, CIM, IAO-localization
   Andreas Hansen         : Spin unrestricted coupled pair/coupled cluster methods
   Benjamin Helmich-Paris : MC-RPA, TRAH-SCF, COSX integrals
   Lee Huntington         : MR-EOM, pCC
   Robert Izsak           : Overlap fitted RIJCOSX, COSX-SCS-MP3, EOM
   Marcus Kettner         : VPT2
   Christian Kollmar      : KDIIS, OOCD, Brueckner-CCSD(T), CCSD density, CASPT2, CASPT2-K
   Simone Kossmann        : Meta GGA functionals, TD-DFT gradient, OOMP2, MP2 Hessian
   Martin Krupicka        : Initial AUTO-CI
   Lucas Lang             : DCDCAS
   Marvin Lechner         : AUTO-CI (C++ implementation), FIC-MRCC
   Dagmar Lenk            : GEPOL surface, SMD
   Dimitrios Liakos       : Extrapolation schemes; Compound Job, initial MDCI parallelization
   Dimitrios Manganas     : Further ROCIS development; embedding schemes
   Dimitrios Pantazis     : SARC Basis sets
   Anastasios Papadopoulos: AUTO-CI, single reference methods and gradients
   Taras Petrenko         : DFT Hessian,TD-DFT gradient, ASA, ECA, R-Raman, ABS, FL, XAS/XES, NRVS
   Peter Pinski           : DLPNO-MP2, DLPNO-MP2 Gradient
   Christoph Reimann      : Effective Core Potentials
   Marius Retegan         : Local ZFS, SOC
   Christoph Riplinger    : Optimizer, TS searches, QM/MM, DLPNO-CCSD(T), (RO)-DLPNO pert. Triples
   Tobias Risthaus        : Range-separated hybrids, TD-DFT gradient, RPA, STAB
   Michael Roemelt        : Original ROCIS implementation
   Masaaki Saitow         : Open-shell DLPNO-CCSD energy and density
   Barbara Sandhoefer     : DKH picture change effects
   Avijit Sen             : IP-ROCIS
   Kantharuban Sivalingam : CASSCF convergence, NEVPT2, FIC-MRCI
   Bernardo de Souza      : ESD, SOC TD-DFT
   Georgi Stoychev        : AutoAux, RI-MP2 NMR
   Willem Van den Heuvel  : Paramagnetic NMR
   Boris Wezisla          : Elementary symmetry handling
   Frank Wennmohs         : Technical directorship


 We gratefully acknowledge several colleagues who have allowed us to
 interface, adapt or use parts of their codes:
   Stefan Grimme, W. Hujo, H. Kruse, P. Pracht,  : VdW corrections, initial TS optimization,
                  C. Bannwarth, S. Ehlert          DFT functionals, gCP, sTDA/sTD-DF
   Ed Valeev, F. Pavosevic, A. Kumar             : LibInt (2-el integral package), F12 methods
   Garnet Chan, S. Sharma, J. Yang, R. Olivares  : DMRG
   Ulf Ekstrom                                   : XCFun DFT Library
   Mihaly Kallay                                 : mrcc  (arbitrary order and MRCC methods)
   Jiri Pittner, Ondrej Demel                    : Mk-CCSD
   Frank Weinhold                                : gennbo (NPA and NBO analysis)
   Christopher J. Cramer and Donald G. Truhlar   : smd solvation model
   Lars Goerigk                                  : TD-DFT with DH, B97 family of functionals
   V. Asgeirsson, H. Jonsson                     : NEB implementation
   FAccTs GmbH                                   : IRC, NEB, NEB-TS, DLPNO-Multilevel, CI-OPT
                                                   MM, QMMM, 2- and 3-layer-ONIOM, Crystal-QMMM,
                                                   LR-CPCM, SF, NACMEs, symmetry and pop. for TD-DFT,
                                                   nearIR, NL-DFT gradient (VV10), updates on ESD,
                                                   ML-optimized integration grids
   S Lehtola, MJT Oliveira, MAL Marques          : LibXC Library
   Liviu Ungur et al                             : ANISO software


 Your calculation uses the libint2 library for the computation of 2-el integrals
 For citations please refer to: http://libint.valeyev.net

 Your ORCA version has been built with support for libXC version: 5.1.0
 For citations please refer to: https://tddft.org/programs/libxc/

 This ORCA versions uses:
   CBLAS   interface :  Fast vector & matrix operations
   LAPACKE interface :  Fast linear algebra routines
   SCALAPACK package :  Parallel linear algebra routines
   Shared memory     :  Shared parallel matrices
   BLAS/LAPACK       :  OpenBLAS 0.3.15  USE64BITINT DYNAMIC_ARCH NO_AFFINITY SkylakeX SINGLE_THREADED
        Core in use  :  SkylakeX
   Copyright (c) 2011-2014, The OpenBLAS Project


================================================================================

----- Orbital basis set information -----
Your calculation utilizes the basis: aug-cc-pVQZ 
    H, B-Ne : Obtained from the ccRepo (grant-hill.group.shef.ac.uk/ccrepo) Feb. 2017
              R. A. Kendall, T. H. Dunning, Jr., R. J. Harrison, J. Chem. Phys. 96, 6796 (1992)
         He : Obtained from the ccRepo (grant-hill.group.shef.ac.uk/ccrepo) Feb. 2017
              D. E. Woon, T. H. Dunning, Jr., J. Chem. Phys. 100, 2975 (1994)
  Li-Be, Na : Obtained from the ccRepo (grant-hill.group.shef.ac.uk/ccrepo) Feb. 2017
              B. P. Prascher, D. E. Woon, K. A. Peterson, T. H. Dunning, Jr., A. K. Wilson, Theor. Chem. Acc. 128, 69 (2011)
         Mg : Obtained from the Peterson Research Group Website (tyr0.chem.wsu.edu/~kipeters) Feb. 2017
              B. P. Prascher, D. E. Woon, K. A. Peterson, T. H. Dunning, Jr., A. K. Wilson, Theor. Chem. Acc. 128, 69 (2011)
      Al-Ar : Obtained from the ccRepo (grant-hill.group.shef.ac.uk/ccrepo) Feb. 2017
              D. E. Woon, T. H. Dunning, Jr., J. Chem. Phys. 98, 1358 (1993)
      Sc-Zn : Obtained from the ccRepo (grant-hill.group.shef.ac.uk/ccrepo) Feb. 2017
              N. B. Balabanov, K. A. Peterson, J. Chem. Phys. 123, 064107 (2005)
              N. B. Balabanov, K. A. Peterson, J. Chem. Phys. 125, 074110 (2006)
      Ga-Kr : Obtained from the ccRepo (grant-hill.group.shef.ac.uk/ccrepo) Feb. 2017
              A. K. Wilson, D. E. Woon, K. A. Peterson, T. H. Dunning, Jr., J. Chem. Phys. 110, 7667 (1999)

================================================================================
                                        WARNINGS
                       Please study these warnings very carefully!
================================================================================


INFO   : the flag for use of the SHARK integral package has been found!

================================================================================
                                       INPUT FILE
================================================================================
NAME = /scratch/BH-2.0-O_111/BH-2.0-O.inp
|  1> ! RHF aug-cc-pVQZ pal8 VeryTightSCF UseSym
|  2> 
|  3> *xyz 0 1
|  4>  B	0.0	0.0	0.0
|  5>  H	2.0	0.0	0.0
|  6> **                         ****END OF INPUT****
================================================================================

------------------------------------------------------------------------------
                            SYMMETRY HANDLING SETUP
------------------------------------------------------------------------------

------------------
SYMMETRY DETECTION
------------------
The point group will now be determined using a tolerance of 1.0000e-04.
Splitting atom subsets according to nuclear charge, mass and basis set.
Splitting atom subsets according to distance from the molecule's center.
Identifying relative distance patterns of the atoms.
Splitting atom subsets according to atoms' relative distance patterns.
Bring atoms of each subset into input order.
The molecule is linear.
There is at least one atom subset not centered around the molecule's center.
The molecule does not have a center of inversion.
No further test is needed for point group Cinfv.
This point group has been found:    Cinfv
Largest non-degenerate subgroup:    C2v


Mass-centered symmetry-perfected Cartesians (point groups Cinfv and C2v):

Atom          Symmetry-perfected Cartesians (x, y, z; au)
  0       0.000000000000    0.000000000000   -0.322363165171
  1       0.000000000000    0.000000000000    3.457089102672


-----------------------------------------------
SYMMETRY-PERFECTED CARTESIAN COORDINATES (A.U.)
-----------------------------------------------
Warning (ORCA_SYM): Coordinates were not cleaned so far!

------------------
SYMMETRY REDUCTION
------------------
ORCA supports only abelian point groups.
It is now checked, if the determined point group is supported:
Point Group ( C2v   ) is          ... supported

(Re)building abelian point group:
Creating Character Table          ... done
Making direct product table       ... done
Constructing symmetry operations  ... done
Creating atom transfer table      ... done
Creating asymmetric unit          ... done

----------------------
ASYMMETRIC UNIT IN C2v
----------------------
  #  AT     MASS              COORDS (A.U.)             BAS
   0 B   10.8100   0.00000000   0.00000000  -0.32236317   0
   1 H    1.0080   0.00000000   0.00000000   3.45708910   0

----------------------
SYMMETRY ADAPTED BASIS
----------------------
The coefficients for the symmetry adapted linear combinations (SALCS)
of basis functions will now be computed:
Number of basis functions         ...   126
Preparing memory                  ... done
Constructing Gamma(red)           ... done
Reducing Gamma(red)               ... done
Constructing SALCs                ... done
Checking SALC integrity           ... nothing suspicious
Normalizing SALCs                 ... done

Storing the symmetry object:
Symmetry file                     ... /scratch/BH-2.0-O_111/BH-2.0-O.sym.tmp
Writing symmetry information      ... done

                       ****************************
                       * Single Point Calculation *
                       ****************************

---------------------------------
CARTESIAN COORDINATES (ANGSTROEM)
---------------------------------
  B      0.000000    0.000000   -0.170587
  H      0.000000    0.000000    1.829413

----------------------------
CARTESIAN COORDINATES (A.U.)
----------------------------
  NO LB      ZA    FRAG     MASS         X           Y           Z
   0 B     5.0000    0    10.810    0.000000    0.000000   -0.322363
   1 H     1.0000    0     1.008    0.000000    0.000000    3.457089

--------------------------------
INTERNAL COORDINATES (ANGSTROEM)
--------------------------------
 B      0   0   0     0.000000000000     0.00000000     0.00000000
 H      1   0   0     2.000000000000     0.00000000     0.00000000

---------------------------
INTERNAL COORDINATES (A.U.)
---------------------------
 B      0   0   0     0.000000000000     0.00000000     0.00000000
 H      1   0   0     3.779452267843     0.00000000     0.00000000

---------------------
BASIS SET INFORMATION
---------------------
There are 2 groups of distinct atoms

 Group   1 Type B   : 22s7p4d3f2g contracted to 6s5p4d3f2g pattern {991111/31111/1111/111/11}
 Group   2 Type H   : 7s4p3d2f contracted to 5s4p3d2f pattern {31111/1111/111/11}

Atom   0B    basis set group =>   1
Atom   1H    basis set group =>   2
--------------------------------------------------------------------------
WARNING: There was an error initializing an OpenFabrics device.

  Local host:   cnode16
  Local device: mlx5_0
--------------------------------------------------------------------------


           ************************************************************
           *        Program running with 8 parallel MPI-processes     *
           *              working on a common directory               *
           ************************************************************
------------------------------------------------------------------------------
                           ORCA GTO INTEGRAL CALCULATION
------------------------------------------------------------------------------
------------------------------------------------------------------------------
                   ___                                                        
                  /   \      - P O W E R E D   B Y -                         
                 /     \                                                     
                 |  |  |   _    _      __       _____    __    __             
                 |  |  |  | |  | |    /  \     |  _  \  |  |  /  |          
                  \  \/   | |  | |   /    \    | | | |  |  | /  /          
                 / \  \   | |__| |  /  /\  \   | |_| |  |  |/  /          
                |  |  |   |  __  | /  /__\  \  |    /   |      \           
                |  |  |   | |  | | |   __   |  |    \   |  |\   \          
                \     /   | |  | | |  |  |  |  | |\  \  |  | \   \       
                 \___/    |_|  |_| |__|  |__|  |_| \__\ |__|  \__/        
                                                                              
                      - O R C A' S   B I G   F R I E N D -                    
                                      &                                       
                       - I N T E G R A L  F E E D E R -                       
                                                                              
 v1 FN, 2020, v2 2021                                                         
------------------------------------------------------------------------------


Reading SHARK input file /scratch/BH-2.0-O_111/BH-2.0-O.SHARKINP.tmp ... ok
----------------------
SHARK INTEGRAL PACKAGE
----------------------

Number of atoms                             ...      2
Number of basis functions                   ...    126
Number of shells                            ...     34
Maximum angular momentum                    ...      4
Integral batch strategy                     ... SHARK/LIBINT Hybrid
RI-J (if used) integral strategy            ... SPLIT-RIJ (Revised 2003 algorithm where possible)
Printlevel                                  ...      1
Contraction scheme used                     ... SEGMENTED contraction
Coulomb Range Separation                    ... NOT USED
Exchange Range Separation                   ... NOT USED
Finite Nucleus Model                        ... NOT USED
Auxiliary Coulomb fitting basis             ... NOT available
Auxiliary J/K fitting basis                 ... NOT available
Auxiliary Correlation fitting basis         ... NOT available
Auxiliary 'external' fitting basis          ... NOT available
Integral threshold                          ...     1.000000e-12
Primitive cut-off                           ...     1.000000e-14
Primitive pair pre-selection threshold      ...     1.000000e-14

Calculating pre-screening integrals         ... done (  0.1 sec) Dimension = 34
Organizing shell pair data                  ... done (  0.0 sec)
Shell pair information
Total number of shell pairs                 ...       595
Shell pairs after pre-screening             ...       595
Total number of primitive shell pairs       ...      1563
Primitive shell pairs kept                  ...      1515
          la=0 lb=0:     66 shell pairs
          la=1 lb=0:     99 shell pairs
          la=1 lb=1:     45 shell pairs
          la=2 lb=0:     77 shell pairs
          la=2 lb=1:     63 shell pairs
          la=2 lb=2:     28 shell pairs
          la=3 lb=0:     55 shell pairs
          la=3 lb=1:     45 shell pairs
          la=3 lb=2:     35 shell pairs
          la=3 lb=3:     15 shell pairs
          la=4 lb=0:     22 shell pairs
          la=4 lb=1:     18 shell pairs
          la=4 lb=2:     14 shell pairs
          la=4 lb=3:     10 shell pairs
          la=4 lb=4:      3 shell pairs

Calculating one electron integrals          ... done (  0.0 sec)
Calculating Nuclear repulsion               ... done (  0.0 sec) ENN=      1.322943020750 Eh

SHARK setup successfully completed in   0.1 seconds

Maximum memory used throughout the entire GTOINT-calculation: 28.9 MB
[cnode16:425260] 7 more processes have sent help message help-mpi-btl-openib.txt / error in device init
[cnode16:425260] Set MCA parameter "orte_base_help_aggregate" to 0 to see all help / error messages
--------------------------------------------------------------------------
WARNING: There was an error initializing an OpenFabrics device.

  Local host:   cnode16
  Local device: mlx5_0
--------------------------------------------------------------------------


           ************************************************************
           *        Program running with 8 parallel MPI-processes     *
           *              working on a common directory               *
           ************************************************************
-------------------------------------------------------------------------------
                                 ORCA SCF
-------------------------------------------------------------------------------

------------
SCF SETTINGS
------------
Hamiltonian:
 Ab initio Hamiltonian  Method          .... Hartree-Fock(GTOs)


General Settings:
 Integral files         IntName         .... /scratch/BH-2.0-O_111/BH-2.0-O
 Hartree-Fock type      HFTyp           .... RHF
 Total Charge           Charge          ....    0
 Multiplicity           Mult            ....    1
 Number of Electrons    NEL             ....    6
 Basis Dimension        Dim             ....  126
 Nuclear Repulsion      ENuc            ....      1.3229430208 Eh

 Symmetry handling      UseSym         .... ON
 Point group                           .... C2v
 Used point group                      .... C2v
 Number of irreps                      .... 4
   Irrep   A1 has   50 symmetry adapted basis functions (ofs=   0)
   Irrep   A2 has   16 symmetry adapted basis functions (ofs=  50)
   Irrep   B1 has   30 symmetry adapted basis functions (ofs=  66)
   Irrep   B2 has   30 symmetry adapted basis functions (ofs=  96)

Convergence Acceleration:
 DIIS                   CNVDIIS         .... on
   Start iteration      DIISMaxIt       ....    12
   Startup error        DIISStart       ....  0.200000
   # of expansion vecs  DIISMaxEq       ....     5
   Bias factor          DIISBfac        ....   1.050
   Max. coefficient     DIISMaxC        ....  10.000
 Trust-Rad. Augm. Hess. CNVTRAH         .... auto
   Auto Start mean grad. ratio tolernc. ....  1.125000
   Auto Start start iteration           ....    20
   Auto Start num. interpolation iter.  ....    10
   Max. Number of Micro iterations      ....    16
   Max. Number of Macro iterations      .... Maxiter - #DIIS iter
   Number of Davidson start vectors     ....     2
   Converg. threshold I  (grad. norm)   ....   2.000e-06
   Converg. threshold II (energy diff.) ....   1.000e-09
   Grad. Scal. Fac. for Micro threshold ....   0.100
   Minimum threshold for Micro iter.    ....   0.010
   NR start threshold (gradient norm)   ....   0.001
   Initial trust radius                 ....   0.400
   Minimum AH scaling param. (alpha)    ....   1.000
   Maximum AH scaling param. (alpha)    .... 1000.000
   Orbital update algorithm             .... Taylor
   White noise on init. David. guess    .... on
   Maximum white noise                  ....   0.010
   Quad. conv. algorithm                .... NR
 SOSCF                  CNVSOSCF        .... on
   Start iteration      SOSCFMaxIt      ....   150
   Startup grad/error   SOSCFStart      ....  0.003300
 Level Shifting         CNVShift        .... on
   Level shift para.    LevelShift      ....    0.2500
   Turn off err/grad.   ShiftErr        ....    0.0010
 Zerner damping         CNVZerner       .... off
 Static damping         CNVDamp         .... on
   Fraction old density DampFac         ....    0.7000
   Max. Damping (<1)    DampMax         ....    0.9800
   Min. Damping (>=0)   DampMin         ....    0.0000
   Turn off err/grad.   DampErr         ....    0.1000
 Fernandez-Rico         CNVRico         .... off

SCF Procedure:
 Maximum # iterations   MaxIter         ....   125
 SCF integral mode      SCFMode         .... Direct
   Integral package                     .... SHARK and LIBINT hybrid scheme
 Reset frequency        DirectResetFreq ....    20
 Integral Threshold     Thresh          ....  1.000e-12 Eh
 Primitive CutOff       TCut            ....  1.000e-14 Eh

Convergence Tolerance:
 Convergence Check Mode ConvCheckMode   .... Total+1el-Energy
 Convergence forced     ConvForced      .... 0
 Energy Change          TolE            ....  1.000e-09 Eh
 1-El. energy change                    ....  1.000e-06 Eh
 Orbital Gradient       TolG            ....  2.000e-06
 Orbital Rotation angle TolX            ....  2.000e-06
 DIIS Error             TolErr          ....  1.000e-08


Diagonalization of the overlap matrix:
Smallest eigenvalue                        ... 5.312e-04
Time for diagonalization                   ...    0.002 sec
Threshold for overlap eigenvalues          ... 1.000e-08
Number of eigenvalues below threshold      ... 0
Time for construction of square roots      ...    0.002 sec
Producing symmetrization matrix            ... done (   0.000 sec)
Total time needed                          ...    0.005 sec

Time for model grid setup =    0.007 sec

------------------------------
INITIAL GUESS: MODEL POTENTIAL
------------------------------
Loading Hartree-Fock densities                     ... done
Calculating cut-offs                               ... done
Initializing the effective Hamiltonian             ... done
Setting up the integral package (SHARK)            ... done
Starting the Coulomb interaction                   ... done (   0.0 sec)
Reading the grid                                   ... done
Mapping shells                                     ... done
Starting the XC term evaluation                    ... done (   0.0 sec)
done (   0.0 sec)
Diagonalizing the Hamiltonian                      ... done (   0.0 sec)
Back transforming the eigenvectors                 ... done (   0.0 sec)
Now organizing SCF variables                       ... done
The symmetry of the initial guess is 1-A1
Irrep occupations for operator 0
    A1 -    3
    A2 -    0
    B1 -    0
    B2 -    0
                      ------------------
                      INITIAL GUESS DONE (   0.0 sec)
                      ------------------
--------------
SCF ITERATIONS
--------------
ITER       Energy         Delta-E        Max-DP      RMS-DP      [F,P]     Damp
               ***  Starting incremental Fock matrix formation  ***
  0    -25.0335769759   0.000000000000 0.04126601  0.00054625  0.1076791 0.7000
  1    -25.0378918892  -0.004314913270 0.02941366  0.00043020  0.0776281 0.7000
                               ***Turning on DIIS***
  2    -25.0411670670  -0.003275177795 0.06885856  0.00106212  0.0553743 0.0000
  3    -25.0469783661  -0.005811299116 0.00415903  0.00012394  0.0101182 0.0000
  4    -25.0523651551  -0.005386788967 0.00259202  0.00007646  0.0037046 0.0000
                      *** Initiating the SOSCF procedure ***
                           *** Shutting down DIIS ***
                      *** Re-Reading the Fockian *** 
                      *** Removing any level shift *** 
ITER      Energy       Delta-E        Grad      Rot      Max-DP    RMS-DP
  5    -25.05017483   0.0021903235  0.001106  0.001106  0.001214  0.000036
               *** Restarting incremental Fock matrix formation ***
  6    -25.04939610   0.0007787266  0.000307  0.000469  0.000603  0.000017
  7    -25.04939707  -0.0000009633  0.000104  0.000260  0.000322  0.000009
  8    -25.04939723  -0.0000001632  0.000008  0.000014  0.000026  0.000001
  9    -25.04939723  -0.0000000014  0.000003  0.000008  0.000014  0.000000
                 **** Energy Check signals convergence ****
              ***Rediagonalizing the Fockian in SOSCF/NRSCF***

               *****************************************************
               *                     SUCCESS                       *
               *           SCF CONVERGED AFTER  10 CYCLES          *
               *****************************************************


----------------
TOTAL SCF ENERGY
----------------

Total Energy       :          -25.04939723 Eh            -681.62875 eV

Components:
Nuclear Repulsion  :            1.32294302 Eh              35.99911 eV
Electronic Energy  :          -26.37234025 Eh            -717.62786 eV
One Electron Energy:          -35.40091481 Eh            -963.30787 eV
Two Electron Energy:            9.02857456 Eh             245.68000 eV

Virial components:
Potential Energy   :          -49.85671652 Eh           -1356.67023 eV
Kinetic Energy     :           24.80731928 Eh             675.04148 eV
Virial Ratio       :            2.00975833


---------------
SCF CONVERGENCE
---------------

  Last Energy change         ...   -1.6122e-10  Tolerance :   1.0000e-09
  Last MAX-Density change    ...    1.0686e-06  Tolerance :   1.0000e-08
  Last RMS-Density change    ...    2.4359e-08  Tolerance :   1.0000e-09
  Last Orbital Gradient      ...    3.0746e-07  Tolerance :   2.0000e-06
  Last Orbital Rotation      ...    6.9315e-07  Tolerance :   2.0000e-06

             **** THE GBW FILE WAS UPDATED (/scratch/BH-2.0-O_111/BH-2.0-O.gbw) ****
             **** DENSITY /scratch/BH-2.0-O_111/BH-2.0-O.scfp WAS UPDATED ****
             **** ENERGY FILE WAS UPDATED (/scratch/BH-2.0-O_111/BH-2.0-O.en.tmp) ****
             **** THE GBW FILE WAS UPDATED (/scratch/BH-2.0-O_111/BH-2.0-O.gbw) ****
             **** DENSITY /scratch/BH-2.0-O_111/BH-2.0-O.scfp WAS UPDATED ****
----------------
ORBITAL ENERGIES
----------------

  NO   OCC          E(Eh)            E(eV)    Irrep 
   0   2.0000      -7.778783      -211.6715    1-A1
   1   2.0000      -0.556279       -15.1371    2-A1
   2   2.0000      -0.336821        -9.1654    3-A1
   3   0.0000       0.011760         0.3200    1-B2
   4   0.0000       0.011760         0.3200    1-B1
   5   0.0000       0.029294         0.7971    4-A1
   6   0.0000       0.052963         1.4412    5-A1
   7   0.0000       0.065773         1.7898    2-B1
   8   0.0000       0.065773         1.7898    2-B2
   9   0.0000       0.092891         2.5277    6-A1
  10   0.0000       0.098968         2.6931    7-A1
  11   0.0000       0.140433         3.8214    3-B2
  12   0.0000       0.140433         3.8214    3-B1
  13   0.0000       0.141689         3.8556    8-A1
  14   0.0000       0.141689         3.8556    1-A2
  15   0.0000       0.194936         5.3045    9-A1
  16   0.0000       0.242080         6.5873   10-A1
  17   0.0000       0.272349         7.4110    4-B1
  18   0.0000       0.272349         7.4110    4-B2
  19   0.0000       0.296339         8.0638    5-B2
  20   0.0000       0.296339         8.0638    5-B1
  21   0.0000       0.321753         8.7553   11-A1
  22   0.0000       0.364821         9.9273   12-A1
  23   0.0000       0.453447        12.3389    6-B2
  24   0.0000       0.453447        12.3389    6-B1
  25   0.0000       0.459881        12.5140   13-A1
  26   0.0000       0.459881        12.5140    2-A2
  27   0.0000       0.480473        13.0743    7-B2
  28   0.0000       0.480473        13.0743    7-B1
  29   0.0000       0.483942        13.1687    3-A2
  30   0.0000       0.483942        13.1687   14-A1
  31   0.0000       0.507443        13.8082   15-A1
  32   0.0000       0.543548        14.7907    8-B2
  33   0.0000       0.543548        14.7907    8-B1
  34   0.0000       0.588985        16.0271   16-A1
  35   0.0000       0.654617        17.8130   17-A1
  36   0.0000       0.769490        20.9389   18-A1
  37   0.0000       0.769490        20.9389    4-A2
  38   0.0000       0.818892        22.2832    9-B1
  39   0.0000       0.818892        22.2832    9-B2
  40   0.0000       0.829570        22.5737   19-A1
  41   0.0000       0.947941        25.7948   10-B2
  42   0.0000       0.947941        25.7948   10-B1
  43   0.0000       1.041103        28.3298   20-A1
  44   0.0000       1.122120        30.5344   11-B2
  45   0.0000       1.122120        30.5344   11-B1
  46   0.0000       1.298789        35.3418   21-A1
  47   0.0000       1.337504        36.3953   12-B2
  48   0.0000       1.337504        36.3953   12-B1
  49   0.0000       1.352412        36.8010   22-A1
  50   0.0000       1.352412        36.8010    5-A2
  51   0.0000       1.356148        36.9026   13-B1
  52   0.0000       1.356148        36.9026   13-B2
  53   0.0000       1.371876        37.3307   23-A1
  54   0.0000       1.371876        37.3307    6-A2
  55   0.0000       1.396575        38.0027   24-A1
  56   0.0000       1.408330        38.3226   25-A1
  57   0.0000       1.408330        38.3226    7-A2
  58   0.0000       1.415031        38.5049   14-B2
  59   0.0000       1.415031        38.5049   14-B1
  60   0.0000       1.474106        40.1125   26-A1
  61   0.0000       1.476100        40.1667   15-B2
  62   0.0000       1.476100        40.1667   15-B1
  63   0.0000       1.489423        40.5292   27-A1
  64   0.0000       1.489423        40.5292    8-A2
  65   0.0000       1.604964        43.6733   28-A1
  66   0.0000       1.709966        46.5305   16-B2
  67   0.0000       1.709966        46.5305   16-B1
  68   0.0000       1.775218        48.3061   17-B2
  69   0.0000       1.775218        48.3061   17-B1
  70   0.0000       1.830475        49.8098   29-A1
  71   0.0000       2.030994        55.2662   30-A1
  72   0.0000       2.059482        56.0414   31-A1
  73   0.0000       2.059482        56.0414    9-A2
  74   0.0000       2.107826        57.3569   32-A1
  75   0.0000       2.126324        57.8602   18-B2
  76   0.0000       2.126324        57.8602   18-B1
  77   0.0000       2.581047        70.2339   33-A1
  78   0.0000       2.581047        70.2339   10-A2
  79   0.0000       2.763569        75.2005   19-B2
  80   0.0000       2.763569        75.2005   19-B1
  81   0.0000       3.046261        82.8930   20-B2
  82   0.0000       3.046261        82.8930   20-B1
  83   0.0000       3.059757        83.2602   34-A1
  84   0.0000       3.402863        92.5966   35-A1
  85   0.0000       3.719894       101.2235   21-B2
  86   0.0000       3.719894       101.2235   21-B1
  87   0.0000       3.882253       105.6415   36-A1
  88   0.0000       3.882253       105.6415   11-A2
  89   0.0000       3.905412       106.2717   12-A2
  90   0.0000       3.905412       106.2717   37-A1
  91   0.0000       3.912636       106.4682   22-B2
  92   0.0000       3.912636       106.4682   22-B1
  93   0.0000       3.962314       107.8200   23-B2
  94   0.0000       3.962314       107.8200   23-B1
  95   0.0000       3.968166       107.9793   38-A1
  96   0.0000       3.980946       108.3270   13-A2
  97   0.0000       3.980946       108.3270   39-A1
  98   0.0000       4.019325       109.3714   40-A1
  99   0.0000       4.041170       109.9658   24-B2
 100   0.0000       4.041170       109.9658   24-B1
 101   0.0000       4.093815       111.3984   14-A2
 102   0.0000       4.093815       111.3984   41-A1
 103   0.0000       4.154714       113.0555   25-B2
 104   0.0000       4.154714       113.0555   25-B1
 105   0.0000       4.320905       117.5778   26-B2
 106   0.0000       4.320905       117.5778   26-B1
 107   0.0000       4.532707       123.3412   42-A1
 108   0.0000       4.745632       129.1352   43-A1
 109   0.0000       6.648737       180.9213   27-B1
 110   0.0000       6.648737       180.9213   27-B2
 111   0.0000       6.745802       183.5626   44-A1
 112   0.0000       6.745802       183.5626   15-A2
 113   0.0000       6.796169       184.9331   28-B2
 114   0.0000       6.796169       184.9331   28-B1
 115   0.0000       6.936166       188.7427   45-A1
 116   0.0000       7.784250       211.8202   46-A1
 117   0.0000       8.261816       224.8154   29-B2
 118   0.0000       8.261816       224.8154   29-B1
 119   0.0000       8.516883       231.7562   16-A2
 120   0.0000       8.516883       231.7562   47-A1
 121   0.0000       8.622393       234.6272   48-A1
 122   0.0000       8.714225       237.1261   30-B1
 123   0.0000       8.714225       237.1261   30-B2
 124   0.0000       9.295345       252.9392   49-A1
 125   0.0000      13.565084       369.1247   50-A1

                    ********************************
                    * MULLIKEN POPULATION ANALYSIS *
                    ********************************

-----------------------
MULLIKEN ATOMIC CHARGES
-----------------------
   0 B :    0.179269
   1 H :   -0.179269
Sum of atomic charges:    0.0000000

--------------------------------
MULLIKEN REDUCED ORBITAL CHARGES
--------------------------------
  0 B s       :     3.902858  s :     3.902858
      pz      :     0.874442  p :     0.874442
      px      :     0.000000
      py      :     0.000000
      dz2     :     0.040701  d :     0.040701
      dxz     :     0.000000
      dyz     :     0.000000
      dx2y2   :     0.000000
      dxy     :     0.000000
      f0      :     0.002635  f :     0.002635
      f+1     :     0.000000
      f-1     :     0.000000
      f+2     :     0.000000
      f-2     :     0.000000
      f+3     :     0.000000
      f-3     :     0.000000
      g0      :     0.000095  g :     0.000095
      g+1     :     0.000000
      g-1     :     0.000000
      g+2     :     0.000000
      g-2     :     0.000000
      g+3     :     0.000000
      g-3     :     0.000000
      g+4     :     0.000000
      g-4     :     0.000000
  1 H s       :     1.158560  s :     1.158560
      pz      :     0.018469  p :     0.018469
      px      :     0.000000
      py      :     0.000000
      dz2     :     0.002000  d :     0.002000
      dxz     :     0.000000
      dyz     :    -0.000000
      dx2y2   :     0.000000
      dxy     :     0.000000
      f0      :     0.000240  f :     0.000240
      f+1     :     0.000000
      f-1     :     0.000000
      f+2     :     0.000000
      f-2     :     0.000000
      f+3     :     0.000000
      f-3     :     0.000000


                     *******************************
                     * LOEWDIN POPULATION ANALYSIS *
                     *******************************

----------------------
LOEWDIN ATOMIC CHARGES
----------------------
   0 B :    0.272798
   1 H :   -0.272798

-------------------------------
LOEWDIN REDUCED ORBITAL CHARGES
-------------------------------
  0 B s       :     3.601385  s :     3.601385
      pz      :     1.007084  p :     1.007084
      px      :     0.000000
      py      :     0.000000
      dz2     :     0.089119  d :     0.089119
      dxz     :     0.000000
      dyz     :     0.000000
      dx2y2   :     0.000000
      dxy     :     0.000000
      f0      :     0.024608  f :     0.024608
      f+1     :     0.000000
      f-1     :     0.000000
      f+2     :     0.000000
      f-2     :     0.000000
      f+3     :     0.000000
      f-3     :     0.000000
      g0      :     0.005004  g :     0.005004
      g+1     :     0.000000
      g-1     :     0.000000
      g+2     :     0.000000
      g-2     :     0.000000
      g+3     :     0.000000
      g-3     :     0.000000
      g+4     :     0.000000
      g-4     :     0.000000
  1 H s       :     1.015388  s :     1.015388
      pz      :     0.177122  p :     0.177122
      px      :     0.000000
      py      :     0.000000
      dz2     :     0.069423  d :     0.069423
      dxz     :     0.000000
      dyz     :     0.000000
      dx2y2   :     0.000000
      dxy     :     0.000000
      f0      :     0.010866  f :     0.010866
      f+1     :     0.000000
      f-1     :     0.000000
      f+2     :     0.000000
      f-2     :     0.000000
      f+3     :     0.000000
      f-3     :     0.000000


                      *****************************
                      * MAYER POPULATION ANALYSIS *
                      *****************************

  NA   - Mulliken gross atomic population
  ZA   - Total nuclear charge
  QA   - Mulliken gross atomic charge
  VA   - Mayer's total valence
  BVA  - Mayer's bonded valence
  FA   - Mayer's free valence

  ATOM       NA         ZA         QA         VA         BVA        FA
  0 B      4.8207     5.0000     0.1793     0.9788     0.9788    -0.0000
  1 H      1.1793     1.0000    -0.1793     0.9788     0.9788     0.0000

  Mayer bond orders larger than 0.100000
B(  0-B ,  1-H ) :   0.9788 

-------
TIMINGS
-------

Total SCF time: 0 days 0 hours 0 min 2 sec 

Total time                  ....       2.223 sec
Sum of individual times     ....       2.070 sec  ( 93.1%)

Fock matrix formation       ....       2.008 sec  ( 90.3%)
Diagonalization             ....       0.020 sec  (  0.9%)
Density matrix formation    ....       0.001 sec  (  0.1%)
Population analysis         ....       0.004 sec  (  0.2%)
Initial guess               ....       0.007 sec  (  0.3%)
Orbital Transformation      ....       0.000 sec  (  0.0%)
Orbital Orthonormalization  ....       0.000 sec  (  0.0%)
DIIS solution               ....       0.012 sec  (  0.6%)
SOSCF solution              ....       0.011 sec  (  0.5%)

Maximum memory used throughout the entire SCF-calculation: 228.6 MB
[cnode16:425326] 7 more processes have sent help message help-mpi-btl-openib.txt / error in device init
[cnode16:425326] Set MCA parameter "orte_base_help_aggregate" to 0 to see all help / error messages

-------------------------   --------------------
FINAL SINGLE POINT ENERGY       -25.049397233070
-------------------------   --------------------


                            ***************************************
                            *     ORCA property calculations      *
                            ***************************************

                                    ---------------------
                                    Active property flags
                                    ---------------------
   (+) Dipole Moment


------------------------------------------------------------------------------
                       ORCA ELECTRIC PROPERTIES CALCULATION
------------------------------------------------------------------------------

Dipole Moment Calculation                       ... on
Quadrupole Moment Calculation                   ... off
Polarizability Calculation                      ... off
GBWName                                         ... /scratch/BH-2.0-O_111/BH-2.0-O.gbw
Electron density file                           ... /scratch/BH-2.0-O_111/BH-2.0-O.scfp
The origin for moment calculation is the CENTER OF MASS  = ( 0.000000,  0.000000  0.000000)

-------------
DIPOLE MOMENT
-------------
                                X             Y             Z
Electronic contribution:      0.00000       0.00000      -2.35196
Nuclear contribution   :      0.00000       0.00000       1.84527
                        -----------------------------------------
Total Dipole Moment    :      0.00000       0.00000      -0.50669
                        -----------------------------------------
Magnitude (a.u.)       :      0.50669
Magnitude (Debye)      :      1.28790



--------------------
Rotational spectrum 
--------------------
 
Rotational constants in cm-1:     0.000000     4.570826     4.570826 
Rotational constants in MHz :     0.000000 137029.909910 137029.909910 

 Dipole components along the rotational axes: 
x,y,z [a.u.] :    -0.506688     0.000000     0.000000 
x,y,z [Debye]:    -1.287900     0.000000     0.000000 

 
--------------------------------------------------------------------------
WARNING: There was an error initializing an OpenFabrics device.

  Local host:   cnode16
  Local device: mlx5_0
--------------------------------------------------------------------------
[cnode16:425396] 7 more processes have sent help message help-mpi-btl-openib.txt / error in device init
[cnode16:425396] Set MCA parameter "orte_base_help_aggregate" to 0 to see all help / error messages

Timings for individual modules:

Sum of individual times         ...        3.074 sec (=   0.051 min)
GTO integral calculation        ...        0.481 sec (=   0.008 min)  15.7 %
SCF iterations                  ...        2.593 sec (=   0.043 min)  84.3 %
                             ****ORCA TERMINATED NORMALLY****
TOTAL RUN TIME: 0 days 0 hours 0 minutes 3 seconds 510 msec

Sender: Unischeduler System <lcz@mgt01>
Subject: Job 133494: <#!/bin/bash
#BSUB -J intel
#BSUB -o BH-2.0-O.out
#BSUB -n 8
#BSUB -q cqueue
export LD_LIBRARY_PATH=/apps/software/openmpi-4.1.1/lib:/apps/software/orca_5_0_0:$LD_LIBRARY_PATH
export PATH=/apps/software/openmpi-4.1.1/bin:/apps/software/orca_5_0_0:$PATH
mkdir /scratch/BH-2.0-O_111
scp $USER@mgt01:/apps/users/lcz/exe13/RHF/BH-2.0-O.inp /scratch/BH-2.0-O_111
/apps/software/orca_5_0_0/orca /scratch/BH-2.0-O_111/BH-2.0-O.inp >& BH-2.0-O.out
scp /scratch/BH-2.0-O_111/*.gbw $USER@mgt01:/apps/users/lcz/exe13/RHF
scp /scratch/BH-2.0-O_111/*.xyz $USER@mgt01:/apps/users/lcz/exe13/RHF
scp /scratch/BH-2.0-O_111/*.trj $USER@mgt01:/apps/users/lcz/exe13/RHF> Exited

Job <#!/bin/bash
#BSUB -J intel
#BSUB -o BH-2.0-O.out
#BSUB -n 8
#BSUB -q cqueue
export LD_LIBRARY_PATH=/apps/software/openmpi-4.1.1/lib:/apps/software/orca_5_0_0:$LD_LIBRARY_PATH
export PATH=/apps/software/openmpi-4.1.1/bin:/apps/software/orca_5_0_0:$PATH
mkdir /scratch/BH-2.0-O_111
scp $USER@mgt01:/apps/users/lcz/exe13/RHF/BH-2.0-O.inp /scratch/BH-2.0-O_111
/apps/software/orca_5_0_0/orca /scratch/BH-2.0-O_111/BH-2.0-O.inp >& BH-2.0-O.out
scp /scratch/BH-2.0-O_111/*.gbw $USER@mgt01:/apps/users/lcz/exe13/RHF
scp /scratch/BH-2.0-O_111/*.xyz $USER@mgt01:/apps/users/lcz/exe13/RHF
scp /scratch/BH-2.0-O_111/*.trj $USER@mgt01:/apps/users/lcz/exe13/RHF> was submitted from host <mgt01> by user <lcz>.
Job was executed on host(s) <8*cnode16>, in queue <cqueue>, as user <lcz>.
</apps/users/lcz> was used as the home directory.
</apps/users/lcz/exe13/RHF> was used as the working directory.
Started at 2022-05-21 17:13:59
Results reported at 2022-05-21 17:14:04

Your job looked like:

------------------------------------------------------------
# User input
#!/bin/bash
#BSUB -J intel
#BSUB -o BH-2.0-O.out
#BSUB -n 8
#BSUB -q cqueue
export LD_LIBRARY_PATH=/apps/software/openmpi-4.1.1/lib:/apps/software/orca_5_0_0:$LD_LIBRARY_PATH
export PATH=/apps/software/openmpi-4.1.1/bin:/apps/software/orca_5_0_0:$PATH
mkdir /scratch/BH-2.0-O_111
scp $USER@mgt01:/apps/users/lcz/exe13/RHF/BH-2.0-O.inp /scratch/BH-2.0-O_111
/apps/software/orca_5_0_0/orca /scratch/BH-2.0-O_111/BH-2.0-O.inp >& BH-2.0-O.out
scp /scratch/BH-2.0-O_111/*.gbw $USER@mgt01:/apps/users/lcz/exe13/RHF
scp /scratch/BH-2.0-O_111/*.xyz $USER@mgt01:/apps/users/lcz/exe13/RHF
scp /scratch/BH-2.0-O_111/*.trj $USER@mgt01:/apps/users/lcz/exe13/RHF
------------------------------------------------------------

Exited with exit code 1.

Resource usage summary:

    CPU time   :            0.02 sec.
    Max Memory :                 8 MB
    Max Processes  :               2


The output (if any) follows:

/scratch/BH-2.0-O_111/*.xyz: No such file or directory
/scratch/BH-2.0-O_111/*.trj: No such file or directory
