
                                        *****************
                                        * O   R   C   A *
                                        *****************

                                            #,                                       
                                            ###                                      
                                            ####                                     
                                            #####                                    
                                            ######                                   
                                           ########,                                 
                                     ,,################,,,,,                         
                               ,,#################################,,                 
                          ,,##########################################,,             
                       ,#########################################, ''#####,          
                    ,#############################################,,   '####,        
                  ,##################################################,,,,####,       
                ,###########''''           ''''###############################       
              ,#####''   ,,,,##########,,,,          '''####'''          '####       
            ,##' ,,,,###########################,,,                        '##       
           ' ,,###''''                  '''############,,,                           
         ,,##''                                '''############,,,,        ,,,,,,###''
      ,#''                                            '''#######################'''  
     '                                                          ''''####''''         
             ,#######,   #######,   ,#######,      ##                                
            ,#'     '#,  ##    ##  ,#'     '#,    #''#        ######   ,####,        
            ##       ##  ##   ,#'  ##            #'  '#       #        #'  '#        
            ##       ##  #######   ##           ,######,      #####,   #    #        
            '#,     ,#'  ##    ##  '#,     ,#' ,#      #,         ##   #,  ,#        
             '#######'   ##     ##  '#######'  #'      '#     #####' # '####'        



                  #######################################################
                  #                        -***-                        #
                  #          Department of theory and spectroscopy      #
                  #    Directorship and core code : Frank Neese         #
                  #        Max Planck Institute fuer Kohlenforschung    #
                  #                Kaiser Wilhelm Platz 1               #
                  #                 D-45470 Muelheim/Ruhr               #
                  #                      Germany                        #
                  #                                                     #
                  #                  All rights reserved                #
                  #                        -***-                        #
                  #######################################################


                         Program Version 5.0.0 -  RELEASE  -
                                (SVN: $Rev: 19529$)
                ($Date: 2021-06-28 11:36:33 +0200 (Mo, 28 Jun 2021) $)


 With contributions from (in alphabetic order):
   Daniel Aravena         : Magnetic Suceptibility
   Michael Atanasov       : Ab Initio Ligand Field Theory (pilot matlab implementation)
   Alexander A. Auer      : GIAO ZORA, VPT2 properties, NMR spectrum
   Ute Becker             : Parallelization
   Giovanni Bistoni       : ED, misc. LED, open-shell LED, HFLD
   Martin Brehm           : Molecular dynamics
   Dmytro Bykov           : SCF Hessian
   Vijay G. Chilkuri      : MRCI spin determinant printing, contributions to CSF-ICE
   Dipayan Datta          : RHF DLPNO-CCSD density
   Achintya Kumar Dutta   : EOM-CC, STEOM-CC
   Dmitry Ganyushin       : Spin-Orbit,Spin-Spin,Magnetic field MRCI
   Miquel Garcia          : C-PCM Hessian, Gaussian charge scheme
   Yang Guo               : DLPNO-NEVPT2, F12-NEVPT2, CIM, IAO-localization
   Andreas Hansen         : Spin unrestricted coupled pair/coupled cluster methods
   Benjamin Helmich-Paris : MC-RPA, TRAH-SCF, COSX integrals
   Lee Huntington         : MR-EOM, pCC
   Robert Izsak           : Overlap fitted RIJCOSX, COSX-SCS-MP3, EOM
   Marcus Kettner         : VPT2
   Christian Kollmar      : KDIIS, OOCD, Brueckner-CCSD(T), CCSD density, CASPT2, CASPT2-K
   Simone Kossmann        : Meta GGA functionals, TD-DFT gradient, OOMP2, MP2 Hessian
   Martin Krupicka        : Initial AUTO-CI
   Lucas Lang             : DCDCAS
   Marvin Lechner         : AUTO-CI (C++ implementation), FIC-MRCC
   Dagmar Lenk            : GEPOL surface, SMD
   Dimitrios Liakos       : Extrapolation schemes; Compound Job, initial MDCI parallelization
   Dimitrios Manganas     : Further ROCIS development; embedding schemes
   Dimitrios Pantazis     : SARC Basis sets
   Anastasios Papadopoulos: AUTO-CI, single reference methods and gradients
   Taras Petrenko         : DFT Hessian,TD-DFT gradient, ASA, ECA, R-Raman, ABS, FL, XAS/XES, NRVS
   Peter Pinski           : DLPNO-MP2, DLPNO-MP2 Gradient
   Christoph Reimann      : Effective Core Potentials
   Marius Retegan         : Local ZFS, SOC
   Christoph Riplinger    : Optimizer, TS searches, QM/MM, DLPNO-CCSD(T), (RO)-DLPNO pert. Triples
   Tobias Risthaus        : Range-separated hybrids, TD-DFT gradient, RPA, STAB
   Michael Roemelt        : Original ROCIS implementation
   Masaaki Saitow         : Open-shell DLPNO-CCSD energy and density
   Barbara Sandhoefer     : DKH picture change effects
   Avijit Sen             : IP-ROCIS
   Kantharuban Sivalingam : CASSCF convergence, NEVPT2, FIC-MRCI
   Bernardo de Souza      : ESD, SOC TD-DFT
   Georgi Stoychev        : AutoAux, RI-MP2 NMR
   Willem Van den Heuvel  : Paramagnetic NMR
   Boris Wezisla          : Elementary symmetry handling
   Frank Wennmohs         : Technical directorship


 We gratefully acknowledge several colleagues who have allowed us to
 interface, adapt or use parts of their codes:
   Stefan Grimme, W. Hujo, H. Kruse, P. Pracht,  : VdW corrections, initial TS optimization,
                  C. Bannwarth, S. Ehlert          DFT functionals, gCP, sTDA/sTD-DF
   Ed Valeev, F. Pavosevic, A. Kumar             : LibInt (2-el integral package), F12 methods
   Garnet Chan, S. Sharma, J. Yang, R. Olivares  : DMRG
   Ulf Ekstrom                                   : XCFun DFT Library
   Mihaly Kallay                                 : mrcc  (arbitrary order and MRCC methods)
   Jiri Pittner, Ondrej Demel                    : Mk-CCSD
   Frank Weinhold                                : gennbo (NPA and NBO analysis)
   Christopher J. Cramer and Donald G. Truhlar   : smd solvation model
   Lars Goerigk                                  : TD-DFT with DH, B97 family of functionals
   V. Asgeirsson, H. Jonsson                     : NEB implementation
   FAccTs GmbH                                   : IRC, NEB, NEB-TS, DLPNO-Multilevel, CI-OPT
                                                   MM, QMMM, 2- and 3-layer-ONIOM, Crystal-QMMM,
                                                   LR-CPCM, SF, NACMEs, symmetry and pop. for TD-DFT,
                                                   nearIR, NL-DFT gradient (VV10), updates on ESD,
                                                   ML-optimized integration grids
   S Lehtola, MJT Oliveira, MAL Marques          : LibXC Library
   Liviu Ungur et al                             : ANISO software


 Your calculation uses the libint2 library for the computation of 2-el integrals
 For citations please refer to: http://libint.valeyev.net

 Your ORCA version has been built with support for libXC version: 5.1.0
 For citations please refer to: https://tddft.org/programs/libxc/

 This ORCA versions uses:
   CBLAS   interface :  Fast vector & matrix operations
   LAPACKE interface :  Fast linear algebra routines
   SCALAPACK package :  Parallel linear algebra routines
   Shared memory     :  Shared parallel matrices
   BLAS/LAPACK       :  OpenBLAS 0.3.15  USE64BITINT DYNAMIC_ARCH NO_AFFINITY SkylakeX SINGLE_THREADED
        Core in use  :  SkylakeX
   Copyright (c) 2011-2014, The OpenBLAS Project


================================================================================

----- Orbital basis set information -----
Your calculation utilizes the basis: aug-cc-pVQZ 
    H, B-Ne : Obtained from the ccRepo (grant-hill.group.shef.ac.uk/ccrepo) Feb. 2017
              R. A. Kendall, T. H. Dunning, Jr., R. J. Harrison, J. Chem. Phys. 96, 6796 (1992)
         He : Obtained from the ccRepo (grant-hill.group.shef.ac.uk/ccrepo) Feb. 2017
              D. E. Woon, T. H. Dunning, Jr., J. Chem. Phys. 100, 2975 (1994)
  Li-Be, Na : Obtained from the ccRepo (grant-hill.group.shef.ac.uk/ccrepo) Feb. 2017
              B. P. Prascher, D. E. Woon, K. A. Peterson, T. H. Dunning, Jr., A. K. Wilson, Theor. Chem. Acc. 128, 69 (2011)
         Mg : Obtained from the Peterson Research Group Website (tyr0.chem.wsu.edu/~kipeters) Feb. 2017
              B. P. Prascher, D. E. Woon, K. A. Peterson, T. H. Dunning, Jr., A. K. Wilson, Theor. Chem. Acc. 128, 69 (2011)
      Al-Ar : Obtained from the ccRepo (grant-hill.group.shef.ac.uk/ccrepo) Feb. 2017
              D. E. Woon, T. H. Dunning, Jr., J. Chem. Phys. 98, 1358 (1993)
      Sc-Zn : Obtained from the ccRepo (grant-hill.group.shef.ac.uk/ccrepo) Feb. 2017
              N. B. Balabanov, K. A. Peterson, J. Chem. Phys. 123, 064107 (2005)
              N. B. Balabanov, K. A. Peterson, J. Chem. Phys. 125, 074110 (2006)
      Ga-Kr : Obtained from the ccRepo (grant-hill.group.shef.ac.uk/ccrepo) Feb. 2017
              A. K. Wilson, D. E. Woon, K. A. Peterson, T. H. Dunning, Jr., J. Chem. Phys. 110, 7667 (1999)

================================================================================
                                        WARNINGS
                       Please study these warnings very carefully!
================================================================================


INFO   : the flag for use of the SHARK integral package has been found!

================================================================================
                                       INPUT FILE
================================================================================
NAME = /scratch/BH-3.6-O_578/BH-3.6-O.inp
|  1> ! RHF aug-cc-pVQZ pal8 VeryTightSCF UseSym
|  2> 
|  3> *xyz 0 1
|  4>  B	0.0	0.0	0.0
|  5>  H	3.6	0.0	0.0
|  6> **                         ****END OF INPUT****
================================================================================

------------------------------------------------------------------------------
                            SYMMETRY HANDLING SETUP
------------------------------------------------------------------------------

------------------
SYMMETRY DETECTION
------------------
The point group will now be determined using a tolerance of 1.0000e-04.
Splitting atom subsets according to nuclear charge, mass and basis set.
Splitting atom subsets according to distance from the molecule's center.
Identifying relative distance patterns of the atoms.
Splitting atom subsets according to atoms' relative distance patterns.
Bring atoms of each subset into input order.
The molecule is linear.
There is at least one atom subset not centered around the molecule's center.
The molecule does not have a center of inversion.
No further test is needed for point group Cinfv.
This point group has been found:    Cinfv
Largest non-degenerate subgroup:    C2v


Mass-centered symmetry-perfected Cartesians (point groups Cinfv and C2v):

Atom          Symmetry-perfected Cartesians (x, y, z; au)
  0       0.000000000000    0.000000000000   -0.580253697307
  1       0.000000000000    0.000000000000    6.222760384810


-----------------------------------------------
SYMMETRY-PERFECTED CARTESIAN COORDINATES (A.U.)
-----------------------------------------------
Warning (ORCA_SYM): Coordinates were not cleaned so far!

------------------
SYMMETRY REDUCTION
------------------
ORCA supports only abelian point groups.
It is now checked, if the determined point group is supported:
Point Group ( C2v   ) is          ... supported

(Re)building abelian point group:
Creating Character Table          ... done
Making direct product table       ... done
Constructing symmetry operations  ... done
Creating atom transfer table      ... done
Creating asymmetric unit          ... done

----------------------
ASYMMETRIC UNIT IN C2v
----------------------
  #  AT     MASS              COORDS (A.U.)             BAS
   0 B   10.8100   0.00000000   0.00000000  -0.58025370   0
   1 H    1.0080   0.00000000   0.00000000   6.22276038   0

----------------------
SYMMETRY ADAPTED BASIS
----------------------
The coefficients for the symmetry adapted linear combinations (SALCS)
of basis functions will now be computed:
Number of basis functions         ...   126
Preparing memory                  ... done
Constructing Gamma(red)           ... done
Reducing Gamma(red)               ... done
Constructing SALCs                ... done
Checking SALC integrity           ... nothing suspicious
Normalizing SALCs                 ... done

Storing the symmetry object:
Symmetry file                     ... /scratch/BH-3.6-O_578/BH-3.6-O.sym.tmp
Writing symmetry information      ... done

                       ****************************
                       * Single Point Calculation *
                       ****************************

---------------------------------
CARTESIAN COORDINATES (ANGSTROEM)
---------------------------------
  B      0.000000    0.000000   -0.307057
  H      0.000000    0.000000    3.292943

----------------------------
CARTESIAN COORDINATES (A.U.)
----------------------------
  NO LB      ZA    FRAG     MASS         X           Y           Z
   0 B     5.0000    0    10.810    0.000000    0.000000   -0.580254
   1 H     1.0000    0     1.008    0.000000    0.000000    6.222760

--------------------------------
INTERNAL COORDINATES (ANGSTROEM)
--------------------------------
 B      0   0   0     0.000000000000     0.00000000     0.00000000
 H      1   0   0     3.600000000000     0.00000000     0.00000000

---------------------------
INTERNAL COORDINATES (A.U.)
---------------------------
 B      0   0   0     0.000000000000     0.00000000     0.00000000
 H      1   0   0     6.803014082117     0.00000000     0.00000000

---------------------
BASIS SET INFORMATION
---------------------
There are 2 groups of distinct atoms

 Group   1 Type B   : 22s7p4d3f2g contracted to 6s5p4d3f2g pattern {991111/31111/1111/111/11}
 Group   2 Type H   : 7s4p3d2f contracted to 5s4p3d2f pattern {31111/1111/111/11}

Atom   0B    basis set group =>   1
Atom   1H    basis set group =>   2
--------------------------------------------------------------------------
WARNING: There was an error initializing an OpenFabrics device.

  Local host:   cnode16
  Local device: mlx5_0
--------------------------------------------------------------------------


           ************************************************************
           *        Program running with 8 parallel MPI-processes     *
           *              working on a common directory               *
           ************************************************************
------------------------------------------------------------------------------
                           ORCA GTO INTEGRAL CALCULATION
------------------------------------------------------------------------------
------------------------------------------------------------------------------
                   ___                                                        
                  /   \      - P O W E R E D   B Y -                         
                 /     \                                                     
                 |  |  |   _    _      __       _____    __    __             
                 |  |  |  | |  | |    /  \     |  _  \  |  |  /  |          
                  \  \/   | |  | |   /    \    | | | |  |  | /  /          
                 / \  \   | |__| |  /  /\  \   | |_| |  |  |/  /          
                |  |  |   |  __  | /  /__\  \  |    /   |      \           
                |  |  |   | |  | | |   __   |  |    \   |  |\   \          
                \     /   | |  | | |  |  |  |  | |\  \  |  | \   \       
                 \___/    |_|  |_| |__|  |__|  |_| \__\ |__|  \__/        
                                                                              
                      - O R C A' S   B I G   F R I E N D -                    
                                      &                                       
                       - I N T E G R A L  F E E D E R -                       
                                                                              
 v1 FN, 2020, v2 2021                                                         
------------------------------------------------------------------------------


Reading SHARK input file /scratch/BH-3.6-O_578/BH-3.6-O.SHARKINP.tmp ... ok
----------------------
SHARK INTEGRAL PACKAGE
----------------------

Number of atoms                             ...      2
Number of basis functions                   ...    126
Number of shells                            ...     34
Maximum angular momentum                    ...      4
Integral batch strategy                     ... SHARK/LIBINT Hybrid
RI-J (if used) integral strategy            ... SPLIT-RIJ (Revised 2003 algorithm where possible)
Printlevel                                  ...      1
Contraction scheme used                     ... SEGMENTED contraction
Coulomb Range Separation                    ... NOT USED
Exchange Range Separation                   ... NOT USED
Finite Nucleus Model                        ... NOT USED
Auxiliary Coulomb fitting basis             ... NOT available
Auxiliary J/K fitting basis                 ... NOT available
Auxiliary Correlation fitting basis         ... NOT available
Auxiliary 'external' fitting basis          ... NOT available
Integral threshold                          ...     1.000000e-12
Primitive cut-off                           ...     1.000000e-14
Primitive pair pre-selection threshold      ...     1.000000e-14

Calculating pre-screening integrals         ... done (  0.1 sec) Dimension = 34
Organizing shell pair data                  ... done (  0.0 sec)
Shell pair information
Total number of shell pairs                 ...       595
Shell pairs after pre-screening             ...       585
Total number of primitive shell pairs       ...      1563
Primitive shell pairs kept                  ...      1406
          la=0 lb=0:     64 shell pairs
          la=1 lb=0:     96 shell pairs
          la=1 lb=1:     44 shell pairs
          la=2 lb=0:     74 shell pairs
          la=2 lb=1:     62 shell pairs
          la=2 lb=2:     28 shell pairs
          la=3 lb=0:     55 shell pairs
          la=3 lb=1:     45 shell pairs
          la=3 lb=2:     35 shell pairs
          la=3 lb=3:     15 shell pairs
          la=4 lb=0:     22 shell pairs
          la=4 lb=1:     18 shell pairs
          la=4 lb=2:     14 shell pairs
          la=4 lb=3:     10 shell pairs
          la=4 lb=4:      3 shell pairs

Calculating one electron integrals          ... done (  0.0 sec)
Calculating Nuclear repulsion               ... done (  0.0 sec) ENN=      0.734968344861 Eh

SHARK setup successfully completed in   0.1 seconds

Maximum memory used throughout the entire GTOINT-calculation: 28.9 MB
[cnode16:425535] 7 more processes have sent help message help-mpi-btl-openib.txt / error in device init
[cnode16:425535] Set MCA parameter "orte_base_help_aggregate" to 0 to see all help / error messages
--------------------------------------------------------------------------
WARNING: There was an error initializing an OpenFabrics device.

  Local host:   cnode16
  Local device: mlx5_0
--------------------------------------------------------------------------


           ************************************************************
           *        Program running with 8 parallel MPI-processes     *
           *              working on a common directory               *
           ************************************************************
-------------------------------------------------------------------------------
                                 ORCA SCF
-------------------------------------------------------------------------------

------------
SCF SETTINGS
------------
Hamiltonian:
 Ab initio Hamiltonian  Method          .... Hartree-Fock(GTOs)


General Settings:
 Integral files         IntName         .... /scratch/BH-3.6-O_578/BH-3.6-O
 Hartree-Fock type      HFTyp           .... RHF
 Total Charge           Charge          ....    0
 Multiplicity           Mult            ....    1
 Number of Electrons    NEL             ....    6
 Basis Dimension        Dim             ....  126
 Nuclear Repulsion      ENuc            ....      0.7349683449 Eh

 Symmetry handling      UseSym         .... ON
 Point group                           .... C2v
 Used point group                      .... C2v
 Number of irreps                      .... 4
   Irrep   A1 has   50 symmetry adapted basis functions (ofs=   0)
   Irrep   A2 has   16 symmetry adapted basis functions (ofs=  50)
   Irrep   B1 has   30 symmetry adapted basis functions (ofs=  66)
   Irrep   B2 has   30 symmetry adapted basis functions (ofs=  96)

Convergence Acceleration:
 DIIS                   CNVDIIS         .... on
   Start iteration      DIISMaxIt       ....    12
   Startup error        DIISStart       ....  0.200000
   # of expansion vecs  DIISMaxEq       ....     5
   Bias factor          DIISBfac        ....   1.050
   Max. coefficient     DIISMaxC        ....  10.000
 Trust-Rad. Augm. Hess. CNVTRAH         .... auto
   Auto Start mean grad. ratio tolernc. ....  1.125000
   Auto Start start iteration           ....    20
   Auto Start num. interpolation iter.  ....    10
   Max. Number of Micro iterations      ....    16
   Max. Number of Macro iterations      .... Maxiter - #DIIS iter
   Number of Davidson start vectors     ....     2
   Converg. threshold I  (grad. norm)   ....   2.000e-06
   Converg. threshold II (energy diff.) ....   1.000e-09
   Grad. Scal. Fac. for Micro threshold ....   0.100
   Minimum threshold for Micro iter.    ....   0.010
   NR start threshold (gradient norm)   ....   0.001
   Initial trust radius                 ....   0.400
   Minimum AH scaling param. (alpha)    ....   1.000
   Maximum AH scaling param. (alpha)    .... 1000.000
   Orbital update algorithm             .... Taylor
   White noise on init. David. guess    .... on
   Maximum white noise                  ....   0.010
   Quad. conv. algorithm                .... NR
 SOSCF                  CNVSOSCF        .... on
   Start iteration      SOSCFMaxIt      ....   150
   Startup grad/error   SOSCFStart      ....  0.003300
 Level Shifting         CNVShift        .... on
   Level shift para.    LevelShift      ....    0.2500
   Turn off err/grad.   ShiftErr        ....    0.0010
 Zerner damping         CNVZerner       .... off
 Static damping         CNVDamp         .... on
   Fraction old density DampFac         ....    0.7000
   Max. Damping (<1)    DampMax         ....    0.9800
   Min. Damping (>=0)   DampMin         ....    0.0000
   Turn off err/grad.   DampErr         ....    0.1000
 Fernandez-Rico         CNVRico         .... off

SCF Procedure:
 Maximum # iterations   MaxIter         ....   125
 SCF integral mode      SCFMode         .... Direct
   Integral package                     .... SHARK and LIBINT hybrid scheme
 Reset frequency        DirectResetFreq ....    20
 Integral Threshold     Thresh          ....  1.000e-12 Eh
 Primitive CutOff       TCut            ....  1.000e-14 Eh

Convergence Tolerance:
 Convergence Check Mode ConvCheckMode   .... Total+1el-Energy
 Convergence forced     ConvForced      .... 0
 Energy Change          TolE            ....  1.000e-09 Eh
 1-El. energy change                    ....  1.000e-06 Eh
 Orbital Gradient       TolG            ....  2.000e-06
 Orbital Rotation angle TolX            ....  2.000e-06
 DIIS Error             TolErr          ....  1.000e-08


Diagonalization of the overlap matrix:
Smallest eigenvalue                        ... 4.680e-03
Time for diagonalization                   ...    0.002 sec
Threshold for overlap eigenvalues          ... 1.000e-08
Number of eigenvalues below threshold      ... 0
Time for construction of square roots      ...    0.002 sec
Producing symmetrization matrix            ... done (   0.000 sec)
Total time needed                          ...    0.004 sec

Time for model grid setup =    0.007 sec

------------------------------
INITIAL GUESS: MODEL POTENTIAL
------------------------------
Loading Hartree-Fock densities                     ... done
Calculating cut-offs                               ... done
Initializing the effective Hamiltonian             ... done
Setting up the integral package (SHARK)            ... done
Starting the Coulomb interaction                   ... done (   0.0 sec)
Reading the grid                                   ... done
Mapping shells                                     ... done
Starting the XC term evaluation                    ... done (   0.0 sec)
done (   0.0 sec)
Diagonalizing the Hamiltonian                      ... done (   0.0 sec)
Back transforming the eigenvectors                 ... done (   0.0 sec)
Now organizing SCF variables                       ... done
The symmetry of the initial guess is 1-A1
Irrep occupations for operator 0
    A1 -    3
    A2 -    0
    B1 -    0
    B2 -    0
                      ------------------
                      INITIAL GUESS DONE (   0.0 sec)
                      ------------------
--------------
SCF ITERATIONS
--------------
ITER       Energy         Delta-E        Max-DP      RMS-DP      [F,P]     Damp
               ***  Starting incremental Fock matrix formation  ***
  0    -24.8165828419   0.000000000000 0.04480568  0.00090054  0.1938761 0.7000
  1    -24.8411912923  -0.024608450408 0.04433908  0.00087374  0.1479655 0.7000
                               ***Turning on DIIS***
  2    -24.8651406050  -0.023949312681 0.03628206  0.00072552  0.1005350 0.7000
  3    -24.7951950306   0.069945574394 0.08076841  0.00164676  0.0676293 0.0000
  4    -24.9378858102  -0.142690779595 0.00943442  0.00021536  0.0128564 0.0000
  5    -24.9289001910   0.008985619192 0.00729175  0.00014523  0.0049912 0.0000
                      *** Initiating the SOSCF procedure ***
                           *** Shutting down DIIS ***
                      *** Re-Reading the Fockian *** 
                      *** Removing any level shift *** 
ITER      Energy       Delta-E        Grad      Rot      Max-DP    RMS-DP
  6    -24.92271819   0.0061820053  0.001921  0.001921  0.003788  0.000064
               *** Restarting incremental Fock matrix formation ***
  7    -24.92032413   0.0023940550  0.000567  0.001440  0.002147  0.000043
  8    -24.92032969  -0.0000055558  0.000221  0.000899  0.001549  0.000031
  9    -24.92033085  -0.0000011604  0.000080  0.000215  0.000208  0.000004
 10    -24.92033091  -0.0000000586  0.000010  0.000036  0.000044  0.000001
 11    -24.92033091  -0.0000000021  0.000003  0.000018  0.000012  0.000000
                 **** Energy Check signals convergence ****
              ***Rediagonalizing the Fockian in SOSCF/NRSCF***

               *****************************************************
               *                     SUCCESS                       *
               *           SCF CONVERGED AFTER  12 CYCLES          *
               *****************************************************


----------------
TOTAL SCF ENERGY
----------------

Total Energy       :          -24.92033091 Eh            -678.11668 eV

Components:
Nuclear Repulsion  :            0.73496834 Eh              19.99951 eV
Electronic Energy  :          -25.65529925 Eh            -698.11618 eV
One Electron Energy:          -33.83131532 Eh            -920.59689 eV
Two Electron Energy:            8.17601607 Eh             222.48071 eV

Virial components:
Potential Energy   :          -49.66858705 Eh           -1351.55097 eV
Kinetic Energy     :           24.74825614 Eh             673.43429 eV
Virial Ratio       :            2.00695301


---------------
SCF CONVERGENCE
---------------

  Last Energy change         ...   -2.7262e-10  Tolerance :   1.0000e-09
  Last MAX-Density change    ...    1.5931e-06  Tolerance :   1.0000e-08
  Last RMS-Density change    ...    2.8100e-08  Tolerance :   1.0000e-09
  Last Orbital Gradient      ...    3.7895e-07  Tolerance :   2.0000e-06
  Last Orbital Rotation      ...    1.1547e-06  Tolerance :   2.0000e-06

             **** THE GBW FILE WAS UPDATED (/scratch/BH-3.6-O_578/BH-3.6-O.gbw) ****
             **** DENSITY /scratch/BH-3.6-O_578/BH-3.6-O.scfp WAS UPDATED ****
             **** ENERGY FILE WAS UPDATED (/scratch/BH-3.6-O_578/BH-3.6-O.en.tmp) ****
             **** THE GBW FILE WAS UPDATED (/scratch/BH-3.6-O_578/BH-3.6-O.gbw) ****
             **** DENSITY /scratch/BH-3.6-O_578/BH-3.6-O.scfp WAS UPDATED ****
----------------
ORBITAL ENERGIES
----------------

  NO   OCC          E(Eh)            E(eV)    Irrep 
   0   2.0000      -7.879659      -214.4164    1-A1
   1   2.0000      -0.610070       -16.6008    2-A1
   2   2.0000      -0.249913        -6.8005    3-A1
   3   0.0000      -0.054714        -1.4889    4-A1
   4   0.0000      -0.037027        -1.0076    1-B2
   5   0.0000      -0.037027        -1.0076    1-B1
   6   0.0000       0.026720         0.7271    5-A1
   7   0.0000       0.046147         1.2557    2-B1
   8   0.0000       0.046147         1.2557    2-B2
   9   0.0000       0.066951         1.8218    6-A1
  10   0.0000       0.091953         2.5022    7-A1
  11   0.0000       0.124666         3.3923    1-A2
  12   0.0000       0.124666         3.3923    8-A1
  13   0.0000       0.131768         3.5856    3-B1
  14   0.0000       0.131768         3.5856    3-B2
  15   0.0000       0.161896         4.4054    9-A1
  16   0.0000       0.246008         6.6942    4-B2
  17   0.0000       0.246008         6.6942    4-B1
  18   0.0000       0.261223         7.1082   10-A1
  19   0.0000       0.266429         7.2499    5-B1
  20   0.0000       0.266429         7.2499    5-B2
  21   0.0000       0.295369         8.0374   11-A1
  22   0.0000       0.341918         9.3041   12-A1
  23   0.0000       0.423965        11.5367    6-B1
  24   0.0000       0.423965        11.5367    6-B2
  25   0.0000       0.430769        11.7218    2-A2
  26   0.0000       0.430769        11.7218   13-A1
  27   0.0000       0.443991        12.0816   14-A1
  28   0.0000       0.443991        12.0816    3-A2
  29   0.0000       0.449367        12.2279    7-B1
  30   0.0000       0.449367        12.2279    7-B2
  31   0.0000       0.453546        12.3416   15-A1
  32   0.0000       0.472347        12.8532    8-B2
  33   0.0000       0.472347        12.8532    8-B1
  34   0.0000       0.490866        13.3571   16-A1
  35   0.0000       0.581709        15.8291   17-A1
  36   0.0000       0.697173        18.9710    4-A2
  37   0.0000       0.697173        18.9710   18-A1
  38   0.0000       0.772137        21.0109    9-B2
  39   0.0000       0.772137        21.0109    9-B1
  40   0.0000       0.878652        23.9093   19-A1
  41   0.0000       0.880302        23.9542   10-B2
  42   0.0000       0.880302        23.9542   10-B1
  43   0.0000       0.953646        25.9500   11-B2
  44   0.0000       0.953646        25.9500   11-B1
  45   0.0000       0.958896        26.0929   20-A1
  46   0.0000       1.005224        27.3535   21-A1
  47   0.0000       1.299112        35.3506   22-A1
  48   0.0000       1.305021        35.5114   23-A1
  49   0.0000       1.305021        35.5114    5-A2
  50   0.0000       1.312312        35.7098    6-A2
  51   0.0000       1.312312        35.7098   24-A1
  52   0.0000       1.315512        35.7969   12-B2
  53   0.0000       1.315512        35.7969   12-B1
  54   0.0000       1.321938        35.9718    7-A2
  55   0.0000       1.321938        35.9718   25-A1
  56   0.0000       1.323074        36.0027   13-B2
  57   0.0000       1.323074        36.0027   13-B1
  58   0.0000       1.332194        36.2508   26-A1
  59   0.0000       1.333126        36.2762   14-B1
  60   0.0000       1.333126        36.2762   14-B2
  61   0.0000       1.358437        36.9650   15-B1
  62   0.0000       1.358437        36.9650   15-B2
  63   0.0000       1.372337        37.3432    8-A2
  64   0.0000       1.372337        37.3432   27-A1
  65   0.0000       1.401204        38.1287   28-A1
  66   0.0000       1.417213        38.5643   16-B2
  67   0.0000       1.417213        38.5643   16-B1
  68   0.0000       1.558970        42.4217   29-A1
  69   0.0000       1.644070        44.7374   17-B2
  70   0.0000       1.644070        44.7374   17-B1
  71   0.0000       1.662210        45.2310    9-A2
  72   0.0000       1.662210        45.2310   30-A1
  73   0.0000       1.750539        47.6346   31-A1
  74   0.0000       1.753842        47.7245   18-B2
  75   0.0000       1.753842        47.7245   18-B1
  76   0.0000       1.903329        51.7922   32-A1
  77   0.0000       2.560685        69.6798   10-A2
  78   0.0000       2.560685        69.6798   33-A1
  79   0.0000       2.618573        71.2550   19-B2
  80   0.0000       2.618573        71.2550   19-B1
  81   0.0000       2.692489        73.2664   20-B2
  82   0.0000       2.692489        73.2664   20-B1
  83   0.0000       2.752437        74.8976   34-A1
  84   0.0000       2.777539        75.5807   35-A1
  85   0.0000       3.592401        97.7542   21-B2
  86   0.0000       3.592401        97.7542   21-B1
  87   0.0000       3.641014        99.0770   36-A1
  88   0.0000       3.811939       103.7281   37-A1
  89   0.0000       3.811939       103.7281   11-A2
  90   0.0000       3.819832       103.9429   38-A1
  91   0.0000       3.819832       103.9429   12-A2
  92   0.0000       3.823359       104.0389   22-B2
  93   0.0000       3.823359       104.0389   22-B1
  94   0.0000       3.834247       104.3352   39-A1
  95   0.0000       3.834247       104.3352   13-A2
  96   0.0000       3.835128       104.3591   23-B1
  97   0.0000       3.835128       104.3591   23-B2
  98   0.0000       3.845275       104.6353   40-A1
  99   0.0000       3.871494       105.3487   24-B2
 100   0.0000       3.871494       105.3487   24-B1
 101   0.0000       3.962159       107.8158   25-B2
 102   0.0000       3.962159       107.8158   25-B1
 103   0.0000       3.977236       108.2261   41-A1
 104   0.0000       3.977236       108.2261   14-A2
 105   0.0000       4.006874       109.0326   42-A1
 106   0.0000       4.007300       109.0442   26-B1
 107   0.0000       4.007300       109.0442   26-B2
 108   0.0000       4.061456       110.5178   43-A1
 109   0.0000       6.654062       181.0662   27-B2
 110   0.0000       6.654062       181.0662   27-B1
 111   0.0000       6.658589       181.1894   15-A2
 112   0.0000       6.658589       181.1894   44-A1
 113   0.0000       6.681330       181.8082   28-B1
 114   0.0000       6.681330       181.8082   28-B2
 115   0.0000       6.715755       182.7450   45-A1
 116   0.0000       7.574812       206.1211   46-A1
 117   0.0000       8.050169       219.0562   29-B2
 118   0.0000       8.050169       219.0562   29-B1
 119   0.0000       8.108340       220.6391   47-A1
 120   0.0000       8.494616       231.1503   16-A2
 121   0.0000       8.494616       231.1503   48-A1
 122   0.0000       8.534212       232.2277   30-B1
 123   0.0000       8.534212       232.2277   30-B2
 124   0.0000       8.630206       234.8399   49-A1
 125   0.0000      12.930376       351.8534   50-A1

                    ********************************
                    * MULLIKEN POPULATION ANALYSIS *
                    ********************************

-----------------------
MULLIKEN ATOMIC CHARGES
-----------------------
   0 B :    0.365594
   1 H :   -0.365594
Sum of atomic charges:   -0.0000000

--------------------------------
MULLIKEN REDUCED ORBITAL CHARGES
--------------------------------
  0 B s       :     4.005707  s :     4.005707
      pz      :     0.607660  p :     0.607660
      px      :     0.000000
      py      :     0.000000
      dz2     :     0.020227  d :     0.020227
      dxz     :     0.000000
      dyz     :     0.000000
      dx2y2   :     0.000000
      dxy     :     0.000000
      f0      :     0.000794  f :     0.000794
      f+1     :     0.000000
      f-1     :     0.000000
      f+2     :     0.000000
      f-2     :     0.000000
      f+3     :     0.000000
      f-3     :     0.000000
      g0      :     0.000017  g :     0.000017
      g+1     :     0.000000
      g-1     :     0.000000
      g+2     :     0.000000
      g-2     :     0.000000
      g+3     :     0.000000
      g-3     :     0.000000
      g+4     :     0.000000
      g-4     :     0.000000
  1 H s       :     1.357603  s :     1.357603
      pz      :     0.007543  p :     0.007543
      px      :     0.000000
      py      :     0.000000
      dz2     :     0.000428  d :     0.000428
      dxz     :     0.000000
      dyz     :     0.000000
      dx2y2   :     0.000000
      dxy     :     0.000000
      f0      :     0.000020  f :     0.000020
      f+1     :     0.000000
      f-1     :     0.000000
      f+2     :     0.000000
      f-2     :     0.000000
      f+3     :     0.000000
      f-3     :     0.000000


                     *******************************
                     * LOEWDIN POPULATION ANALYSIS *
                     *******************************

----------------------
LOEWDIN ATOMIC CHARGES
----------------------
   0 B :    0.281848
   1 H :   -0.281848

-------------------------------
LOEWDIN REDUCED ORBITAL CHARGES
-------------------------------
  0 B s       :     4.002362  s :     4.002362
      pz      :     0.651957  p :     0.651957
      px      :     0.000000
      py      :     0.000000
      dz2     :     0.054614  d :     0.054614
      dxz     :     0.000000
      dyz     :     0.000000
      dx2y2   :     0.000000
      dxy     :     0.000000
      f0      :     0.009012  f :     0.009012
      f+1     :     0.000000
      f-1     :     0.000000
      f+2     :     0.000000
      f-2     :     0.000000
      f+3     :     0.000000
      f-3     :     0.000000
      g0      :     0.000207  g :     0.000207
      g+1     :     0.000000
      g-1     :     0.000000
      g+2     :     0.000000
      g-2     :     0.000000
      g+3     :     0.000000
      g-3     :     0.000000
      g+4     :     0.000000
      g-4     :     0.000000
  1 H s       :     1.266355  s :     1.266355
      pz      :     0.013329  p :     0.013329
      px      :     0.000000
      py      :     0.000000
      dz2     :     0.002037  d :     0.002037
      dxz     :     0.000000
      dyz     :     0.000000
      dx2y2   :     0.000000
      dxy     :     0.000000
      f0      :     0.000127  f :     0.000127
      f+1     :     0.000000
      f-1     :     0.000000
      f+2     :     0.000000
      f-2     :     0.000000
      f+3     :     0.000000
      f-3     :     0.000000


                      *****************************
                      * MAYER POPULATION ANALYSIS *
                      *****************************

  NA   - Mulliken gross atomic population
  ZA   - Total nuclear charge
  QA   - Mulliken gross atomic charge
  VA   - Mayer's total valence
  BVA  - Mayer's bonded valence
  FA   - Mayer's free valence

  ATOM       NA         ZA         QA         VA         BVA        FA
  0 B      4.6344     5.0000     0.3656     0.8694     0.8694    -0.0000
  1 H      1.3656     1.0000    -0.3656     0.8694     0.8694    -0.0000

  Mayer bond orders larger than 0.100000
B(  0-B ,  1-H ) :   0.8694 

-------
TIMINGS
-------

Total SCF time: 0 days 0 hours 0 min 2 sec 

Total time                  ....       2.292 sec
Sum of individual times     ....       2.137 sec  ( 93.2%)

Fock matrix formation       ....       2.066 sec  ( 90.1%)
Diagonalization             ....       0.024 sec  (  1.0%)
Density matrix formation    ....       0.001 sec  (  0.1%)
Population analysis         ....       0.004 sec  (  0.2%)
Initial guess               ....       0.006 sec  (  0.3%)
Orbital Transformation      ....       0.000 sec  (  0.0%)
Orbital Orthonormalization  ....       0.000 sec  (  0.0%)
DIIS solution               ....       0.015 sec  (  0.7%)
SOSCF solution              ....       0.013 sec  (  0.6%)

Maximum memory used throughout the entire SCF-calculation: 228.5 MB
[cnode16:425595] 7 more processes have sent help message help-mpi-btl-openib.txt / error in device init
[cnode16:425595] Set MCA parameter "orte_base_help_aggregate" to 0 to see all help / error messages

-------------------------   --------------------
FINAL SINGLE POINT ENERGY       -24.920330907939
-------------------------   --------------------


                            ***************************************
                            *     ORCA property calculations      *
                            ***************************************

                                    ---------------------
                                    Active property flags
                                    ---------------------
   (+) Dipole Moment


------------------------------------------------------------------------------
                       ORCA ELECTRIC PROPERTIES CALCULATION
------------------------------------------------------------------------------

Dipole Moment Calculation                       ... on
Quadrupole Moment Calculation                   ... off
Polarizability Calculation                      ... off
GBWName                                         ... /scratch/BH-3.6-O_578/BH-3.6-O.gbw
Electron density file                           ... /scratch/BH-3.6-O_578/BH-3.6-O.scfp
The origin for moment calculation is the CENTER OF MASS  = ( 0.000000,  0.000000  0.000000)

-------------
DIPOLE MOMENT
-------------
                                X             Y             Z
Electronic contribution:      0.00000      -0.00000      -6.09552
Nuclear contribution   :      0.00000       0.00000       3.32149
                        -----------------------------------------
Total Dipole Moment    :      0.00000      -0.00000      -2.77403
                        -----------------------------------------
Magnitude (a.u.)       :      2.77403
Magnitude (Debye)      :      7.05101



--------------------
Rotational spectrum 
--------------------
 
Rotational constants in cm-1:     0.000000     1.410749     1.410749 
Rotational constants in MHz :     0.000000 42293.182071 42293.182071 

 Dipole components along the rotational axes: 
x,y,z [a.u.] :    -2.774026    -0.000000     0.000000 
x,y,z [Debye]:    -7.051014    -0.000000     0.000000 

 
--------------------------------------------------------------------------
WARNING: There was an error initializing an OpenFabrics device.

  Local host:   cnode16
  Local device: mlx5_0
--------------------------------------------------------------------------
[cnode16:425655] 7 more processes have sent help message help-mpi-btl-openib.txt / error in device init
[cnode16:425655] Set MCA parameter "orte_base_help_aggregate" to 0 to see all help / error messages

Timings for individual modules:

Sum of individual times         ...        3.190 sec (=   0.053 min)
GTO integral calculation        ...        0.512 sec (=   0.009 min)  16.0 %
SCF iterations                  ...        2.678 sec (=   0.045 min)  84.0 %
                             ****ORCA TERMINATED NORMALLY****
TOTAL RUN TIME: 0 days 0 hours 0 minutes 3 seconds 638 msec

Sender: Unischeduler System <lcz@mgt01>
Subject: Job 133502: <#!/bin/bash
#BSUB -J intel
#BSUB -o BH-3.6-O.out
#BSUB -n 8
#BSUB -q cqueue
export LD_LIBRARY_PATH=/apps/software/openmpi-4.1.1/lib:/apps/software/orca_5_0_0:$LD_LIBRARY_PATH
export PATH=/apps/software/openmpi-4.1.1/bin:/apps/software/orca_5_0_0:$PATH
mkdir /scratch/BH-3.6-O_578
scp $USER@mgt01:/apps/users/lcz/exe13/RHF/BH-3.6-O.inp /scratch/BH-3.6-O_578
/apps/software/orca_5_0_0/orca /scratch/BH-3.6-O_578/BH-3.6-O.inp >& BH-3.6-O.out
scp /scratch/BH-3.6-O_578/*.gbw $USER@mgt01:/apps/users/lcz/exe13/RHF
scp /scratch/BH-3.6-O_578/*.xyz $USER@mgt01:/apps/users/lcz/exe13/RHF
scp /scratch/BH-3.6-O_578/*.trj $USER@mgt01:/apps/users/lcz/exe13/RHF> Exited

Job <#!/bin/bash
#BSUB -J intel
#BSUB -o BH-3.6-O.out
#BSUB -n 8
#BSUB -q cqueue
export LD_LIBRARY_PATH=/apps/software/openmpi-4.1.1/lib:/apps/software/orca_5_0_0:$LD_LIBRARY_PATH
export PATH=/apps/software/openmpi-4.1.1/bin:/apps/software/orca_5_0_0:$PATH
mkdir /scratch/BH-3.6-O_578
scp $USER@mgt01:/apps/users/lcz/exe13/RHF/BH-3.6-O.inp /scratch/BH-3.6-O_578
/apps/software/orca_5_0_0/orca /scratch/BH-3.6-O_578/BH-3.6-O.inp >& BH-3.6-O.out
scp /scratch/BH-3.6-O_578/*.gbw $USER@mgt01:/apps/users/lcz/exe13/RHF
scp /scratch/BH-3.6-O_578/*.xyz $USER@mgt01:/apps/users/lcz/exe13/RHF
scp /scratch/BH-3.6-O_578/*.trj $USER@mgt01:/apps/users/lcz/exe13/RHF> was submitted from host <mgt01> by user <lcz>.
Job was executed on host(s) <8*cnode16>, in queue <cqueue>, as user <lcz>.
</apps/users/lcz> was used as the home directory.
</apps/users/lcz/exe13/RHF> was used as the working directory.
Started at 2022-05-21 17:14:27
Results reported at 2022-05-21 17:14:32

Your job looked like:

------------------------------------------------------------
# User input
#!/bin/bash
#BSUB -J intel
#BSUB -o BH-3.6-O.out
#BSUB -n 8
#BSUB -q cqueue
export LD_LIBRARY_PATH=/apps/software/openmpi-4.1.1/lib:/apps/software/orca_5_0_0:$LD_LIBRARY_PATH
export PATH=/apps/software/openmpi-4.1.1/bin:/apps/software/orca_5_0_0:$PATH
mkdir /scratch/BH-3.6-O_578
scp $USER@mgt01:/apps/users/lcz/exe13/RHF/BH-3.6-O.inp /scratch/BH-3.6-O_578
/apps/software/orca_5_0_0/orca /scratch/BH-3.6-O_578/BH-3.6-O.inp >& BH-3.6-O.out
scp /scratch/BH-3.6-O_578/*.gbw $USER@mgt01:/apps/users/lcz/exe13/RHF
scp /scratch/BH-3.6-O_578/*.xyz $USER@mgt01:/apps/users/lcz/exe13/RHF
scp /scratch/BH-3.6-O_578/*.trj $USER@mgt01:/apps/users/lcz/exe13/RHF
------------------------------------------------------------

Exited with exit code 1.

Resource usage summary:

    CPU time   :             1.1 sec.
    Max Memory :               271 MB
    Max Processes  :              13


The output (if any) follows:

/scratch/BH-3.6-O_578/*.xyz: No such file or directory
/scratch/BH-3.6-O_578/*.trj: No such file or directory
