
                                        *****************
                                        * O   R   C   A *
                                        *****************

                                            #,                                       
                                            ###                                      
                                            ####                                     
                                            #####                                    
                                            ######                                   
                                           ########,                                 
                                     ,,################,,,,,                         
                               ,,#################################,,                 
                          ,,##########################################,,             
                       ,#########################################, ''#####,          
                    ,#############################################,,   '####,        
                  ,##################################################,,,,####,       
                ,###########''''           ''''###############################       
              ,#####''   ,,,,##########,,,,          '''####'''          '####       
            ,##' ,,,,###########################,,,                        '##       
           ' ,,###''''                  '''############,,,                           
         ,,##''                                '''############,,,,        ,,,,,,###''
      ,#''                                            '''#######################'''  
     '                                                          ''''####''''         
             ,#######,   #######,   ,#######,      ##                                
            ,#'     '#,  ##    ##  ,#'     '#,    #''#        ######   ,####,        
            ##       ##  ##   ,#'  ##            #'  '#       #        #'  '#        
            ##       ##  #######   ##           ,######,      #####,   #    #        
            '#,     ,#'  ##    ##  '#,     ,#' ,#      #,         ##   #,  ,#        
             '#######'   ##     ##  '#######'  #'      '#     #####' # '####'        



                  #######################################################
                  #                        -***-                        #
                  #          Department of theory and spectroscopy      #
                  #    Directorship and core code : Frank Neese         #
                  #        Max Planck Institute fuer Kohlenforschung    #
                  #                Kaiser Wilhelm Platz 1               #
                  #                 D-45470 Muelheim/Ruhr               #
                  #                      Germany                        #
                  #                                                     #
                  #                  All rights reserved                #
                  #                        -***-                        #
                  #######################################################


                         Program Version 5.0.0 -  RELEASE  -
                                (SVN: $Rev: 19529$)
                ($Date: 2021-06-28 11:36:33 +0200 (Mo, 28 Jun 2021) $)


 With contributions from (in alphabetic order):
   Daniel Aravena         : Magnetic Suceptibility
   Michael Atanasov       : Ab Initio Ligand Field Theory (pilot matlab implementation)
   Alexander A. Auer      : GIAO ZORA, VPT2 properties, NMR spectrum
   Ute Becker             : Parallelization
   Giovanni Bistoni       : ED, misc. LED, open-shell LED, HFLD
   Martin Brehm           : Molecular dynamics
   Dmytro Bykov           : SCF Hessian
   Vijay G. Chilkuri      : MRCI spin determinant printing, contributions to CSF-ICE
   Dipayan Datta          : RHF DLPNO-CCSD density
   Achintya Kumar Dutta   : EOM-CC, STEOM-CC
   Dmitry Ganyushin       : Spin-Orbit,Spin-Spin,Magnetic field MRCI
   Miquel Garcia          : C-PCM Hessian, Gaussian charge scheme
   Yang Guo               : DLPNO-NEVPT2, F12-NEVPT2, CIM, IAO-localization
   Andreas Hansen         : Spin unrestricted coupled pair/coupled cluster methods
   Benjamin Helmich-Paris : MC-RPA, TRAH-SCF, COSX integrals
   Lee Huntington         : MR-EOM, pCC
   Robert Izsak           : Overlap fitted RIJCOSX, COSX-SCS-MP3, EOM
   Marcus Kettner         : VPT2
   Christian Kollmar      : KDIIS, OOCD, Brueckner-CCSD(T), CCSD density, CASPT2, CASPT2-K
   Simone Kossmann        : Meta GGA functionals, TD-DFT gradient, OOMP2, MP2 Hessian
   Martin Krupicka        : Initial AUTO-CI
   Lucas Lang             : DCDCAS
   Marvin Lechner         : AUTO-CI (C++ implementation), FIC-MRCC
   Dagmar Lenk            : GEPOL surface, SMD
   Dimitrios Liakos       : Extrapolation schemes; Compound Job, initial MDCI parallelization
   Dimitrios Manganas     : Further ROCIS development; embedding schemes
   Dimitrios Pantazis     : SARC Basis sets
   Anastasios Papadopoulos: AUTO-CI, single reference methods and gradients
   Taras Petrenko         : DFT Hessian,TD-DFT gradient, ASA, ECA, R-Raman, ABS, FL, XAS/XES, NRVS
   Peter Pinski           : DLPNO-MP2, DLPNO-MP2 Gradient
   Christoph Reimann      : Effective Core Potentials
   Marius Retegan         : Local ZFS, SOC
   Christoph Riplinger    : Optimizer, TS searches, QM/MM, DLPNO-CCSD(T), (RO)-DLPNO pert. Triples
   Tobias Risthaus        : Range-separated hybrids, TD-DFT gradient, RPA, STAB
   Michael Roemelt        : Original ROCIS implementation
   Masaaki Saitow         : Open-shell DLPNO-CCSD energy and density
   Barbara Sandhoefer     : DKH picture change effects
   Avijit Sen             : IP-ROCIS
   Kantharuban Sivalingam : CASSCF convergence, NEVPT2, FIC-MRCI
   Bernardo de Souza      : ESD, SOC TD-DFT
   Georgi Stoychev        : AutoAux, RI-MP2 NMR
   Willem Van den Heuvel  : Paramagnetic NMR
   Boris Wezisla          : Elementary symmetry handling
   Frank Wennmohs         : Technical directorship


 We gratefully acknowledge several colleagues who have allowed us to
 interface, adapt or use parts of their codes:
   Stefan Grimme, W. Hujo, H. Kruse, P. Pracht,  : VdW corrections, initial TS optimization,
                  C. Bannwarth, S. Ehlert          DFT functionals, gCP, sTDA/sTD-DF
   Ed Valeev, F. Pavosevic, A. Kumar             : LibInt (2-el integral package), F12 methods
   Garnet Chan, S. Sharma, J. Yang, R. Olivares  : DMRG
   Ulf Ekstrom                                   : XCFun DFT Library
   Mihaly Kallay                                 : mrcc  (arbitrary order and MRCC methods)
   Jiri Pittner, Ondrej Demel                    : Mk-CCSD
   Frank Weinhold                                : gennbo (NPA and NBO analysis)
   Christopher J. Cramer and Donald G. Truhlar   : smd solvation model
   Lars Goerigk                                  : TD-DFT with DH, B97 family of functionals
   V. Asgeirsson, H. Jonsson                     : NEB implementation
   FAccTs GmbH                                   : IRC, NEB, NEB-TS, DLPNO-Multilevel, CI-OPT
                                                   MM, QMMM, 2- and 3-layer-ONIOM, Crystal-QMMM,
                                                   LR-CPCM, SF, NACMEs, symmetry and pop. for TD-DFT,
                                                   nearIR, NL-DFT gradient (VV10), updates on ESD,
                                                   ML-optimized integration grids
   S Lehtola, MJT Oliveira, MAL Marques          : LibXC Library
   Liviu Ungur et al                             : ANISO software


 Your calculation uses the libint2 library for the computation of 2-el integrals
 For citations please refer to: http://libint.valeyev.net

 Your ORCA version has been built with support for libXC version: 5.1.0
 For citations please refer to: https://tddft.org/programs/libxc/

 This ORCA versions uses:
   CBLAS   interface :  Fast vector & matrix operations
   LAPACKE interface :  Fast linear algebra routines
   SCALAPACK package :  Parallel linear algebra routines
   Shared memory     :  Shared parallel matrices
   BLAS/LAPACK       :  OpenBLAS 0.3.15  USE64BITINT DYNAMIC_ARCH NO_AFFINITY SkylakeX SINGLE_THREADED
        Core in use  :  SkylakeX
   Copyright (c) 2011-2014, The OpenBLAS Project


================================================================================

----- Orbital basis set information -----
Your calculation utilizes the basis: aug-cc-pVQZ 
    H, B-Ne : Obtained from the ccRepo (grant-hill.group.shef.ac.uk/ccrepo) Feb. 2017
              R. A. Kendall, T. H. Dunning, Jr., R. J. Harrison, J. Chem. Phys. 96, 6796 (1992)
         He : Obtained from the ccRepo (grant-hill.group.shef.ac.uk/ccrepo) Feb. 2017
              D. E. Woon, T. H. Dunning, Jr., J. Chem. Phys. 100, 2975 (1994)
  Li-Be, Na : Obtained from the ccRepo (grant-hill.group.shef.ac.uk/ccrepo) Feb. 2017
              B. P. Prascher, D. E. Woon, K. A. Peterson, T. H. Dunning, Jr., A. K. Wilson, Theor. Chem. Acc. 128, 69 (2011)
         Mg : Obtained from the Peterson Research Group Website (tyr0.chem.wsu.edu/~kipeters) Feb. 2017
              B. P. Prascher, D. E. Woon, K. A. Peterson, T. H. Dunning, Jr., A. K. Wilson, Theor. Chem. Acc. 128, 69 (2011)
      Al-Ar : Obtained from the ccRepo (grant-hill.group.shef.ac.uk/ccrepo) Feb. 2017
              D. E. Woon, T. H. Dunning, Jr., J. Chem. Phys. 98, 1358 (1993)
      Sc-Zn : Obtained from the ccRepo (grant-hill.group.shef.ac.uk/ccrepo) Feb. 2017
              N. B. Balabanov, K. A. Peterson, J. Chem. Phys. 123, 064107 (2005)
              N. B. Balabanov, K. A. Peterson, J. Chem. Phys. 125, 074110 (2006)
      Ga-Kr : Obtained from the ccRepo (grant-hill.group.shef.ac.uk/ccrepo) Feb. 2017
              A. K. Wilson, D. E. Woon, K. A. Peterson, T. H. Dunning, Jr., J. Chem. Phys. 110, 7667 (1999)

================================================================================
                                        WARNINGS
                       Please study these warnings very carefully!
================================================================================


INFO   : the flag for use of the SHARK integral package has been found!

================================================================================
                                       INPUT FILE
================================================================================
NAME = /scratch/BH-3.8-O_760/BH-3.8-O.inp
|  1> ! RHF aug-cc-pVQZ pal8 VeryTightSCF UseSym
|  2> 
|  3> *xyz 0 1
|  4>  B	0.0	0.0	0.0
|  5>  H	3.8	0.0	0.0
|  6> **                         ****END OF INPUT****
================================================================================

------------------------------------------------------------------------------
                            SYMMETRY HANDLING SETUP
------------------------------------------------------------------------------

------------------
SYMMETRY DETECTION
------------------
The point group will now be determined using a tolerance of 1.0000e-04.
Splitting atom subsets according to nuclear charge, mass and basis set.
Splitting atom subsets according to distance from the molecule's center.
Identifying relative distance patterns of the atoms.
Splitting atom subsets according to atoms' relative distance patterns.
Bring atoms of each subset into input order.
The molecule is linear.
There is at least one atom subset not centered around the molecule's center.
The molecule does not have a center of inversion.
No further test is needed for point group Cinfv.
This point group has been found:    Cinfv
Largest non-degenerate subgroup:    C2v


Mass-centered symmetry-perfected Cartesians (point groups Cinfv and C2v):

Atom          Symmetry-perfected Cartesians (x, y, z; au)
  0       0.000000000000    0.000000000000   -0.612490013824
  1       0.000000000000    0.000000000000    6.568469295077


-----------------------------------------------
SYMMETRY-PERFECTED CARTESIAN COORDINATES (A.U.)
-----------------------------------------------
Warning (ORCA_SYM): Coordinates were not cleaned so far!

------------------
SYMMETRY REDUCTION
------------------
ORCA supports only abelian point groups.
It is now checked, if the determined point group is supported:
Point Group ( C2v   ) is          ... supported

(Re)building abelian point group:
Creating Character Table          ... done
Making direct product table       ... done
Constructing symmetry operations  ... done
Creating atom transfer table      ... done
Creating asymmetric unit          ... done

----------------------
ASYMMETRIC UNIT IN C2v
----------------------
  #  AT     MASS              COORDS (A.U.)             BAS
   0 B   10.8100   0.00000000   0.00000000  -0.61249001   0
   1 H    1.0080   0.00000000   0.00000000   6.56846930   0

----------------------
SYMMETRY ADAPTED BASIS
----------------------
The coefficients for the symmetry adapted linear combinations (SALCS)
of basis functions will now be computed:
Number of basis functions         ...   126
Preparing memory                  ... done
Constructing Gamma(red)           ... done
Reducing Gamma(red)               ... done
Constructing SALCs                ... done
Checking SALC integrity           ... nothing suspicious
Normalizing SALCs                 ... done

Storing the symmetry object:
Symmetry file                     ... /scratch/BH-3.8-O_760/BH-3.8-O.sym.tmp
Writing symmetry information      ... done

                       ****************************
                       * Single Point Calculation *
                       ****************************

---------------------------------
CARTESIAN COORDINATES (ANGSTROEM)
---------------------------------
  B      0.000000    0.000000   -0.324116
  H      0.000000    0.000000    3.475884

----------------------------
CARTESIAN COORDINATES (A.U.)
----------------------------
  NO LB      ZA    FRAG     MASS         X           Y           Z
   0 B     5.0000    0    10.810    0.000000    0.000000   -0.612490
   1 H     1.0000    0     1.008    0.000000    0.000000    6.568469

--------------------------------
INTERNAL COORDINATES (ANGSTROEM)
--------------------------------
 B      0   0   0     0.000000000000     0.00000000     0.00000000
 H      1   0   0     3.800000000000     0.00000000     0.00000000

---------------------------
INTERNAL COORDINATES (A.U.)
---------------------------
 B      0   0   0     0.000000000000     0.00000000     0.00000000
 H      1   0   0     7.180959308901     0.00000000     0.00000000

---------------------
BASIS SET INFORMATION
---------------------
There are 2 groups of distinct atoms

 Group   1 Type B   : 22s7p4d3f2g contracted to 6s5p4d3f2g pattern {991111/31111/1111/111/11}
 Group   2 Type H   : 7s4p3d2f contracted to 5s4p3d2f pattern {31111/1111/111/11}

Atom   0B    basis set group =>   1
Atom   1H    basis set group =>   2
--------------------------------------------------------------------------
WARNING: There was an error initializing an OpenFabrics device.

  Local host:   cnode16
  Local device: mlx5_0
--------------------------------------------------------------------------


           ************************************************************
           *        Program running with 8 parallel MPI-processes     *
           *              working on a common directory               *
           ************************************************************
------------------------------------------------------------------------------
                           ORCA GTO INTEGRAL CALCULATION
------------------------------------------------------------------------------
------------------------------------------------------------------------------
                   ___                                                        
                  /   \      - P O W E R E D   B Y -                         
                 /     \                                                     
                 |  |  |   _    _      __       _____    __    __             
                 |  |  |  | |  | |    /  \     |  _  \  |  |  /  |          
                  \  \/   | |  | |   /    \    | | | |  |  | /  /          
                 / \  \   | |__| |  /  /\  \   | |_| |  |  |/  /          
                |  |  |   |  __  | /  /__\  \  |    /   |      \           
                |  |  |   | |  | | |   __   |  |    \   |  |\   \          
                \     /   | |  | | |  |  |  |  | |\  \  |  | \   \       
                 \___/    |_|  |_| |__|  |__|  |_| \__\ |__|  \__/        
                                                                              
                      - O R C A' S   B I G   F R I E N D -                    
                                      &                                       
                       - I N T E G R A L  F E E D E R -                       
                                                                              
 v1 FN, 2020, v2 2021                                                         
------------------------------------------------------------------------------


Reading SHARK input file /scratch/BH-3.8-O_760/BH-3.8-O.SHARKINP.tmp ... ok
----------------------
SHARK INTEGRAL PACKAGE
----------------------

Number of atoms                             ...      2
Number of basis functions                   ...    126
Number of shells                            ...     34
Maximum angular momentum                    ...      4
Integral batch strategy                     ... SHARK/LIBINT Hybrid
RI-J (if used) integral strategy            ... SPLIT-RIJ (Revised 2003 algorithm where possible)
Printlevel                                  ...      1
Contraction scheme used                     ... SEGMENTED contraction
Coulomb Range Separation                    ... NOT USED
Exchange Range Separation                   ... NOT USED
Finite Nucleus Model                        ... NOT USED
Auxiliary Coulomb fitting basis             ... NOT available
Auxiliary J/K fitting basis                 ... NOT available
Auxiliary Correlation fitting basis         ... NOT available
Auxiliary 'external' fitting basis          ... NOT available
Integral threshold                          ...     1.000000e-12
Primitive cut-off                           ...     1.000000e-14
Primitive pair pre-selection threshold      ...     1.000000e-14

Calculating pre-screening integrals         ... done (  0.1 sec) Dimension = 34
Organizing shell pair data                  ... done (  0.0 sec)
Shell pair information
Total number of shell pairs                 ...       595
Shell pairs after pre-screening             ...       582
Total number of primitive shell pairs       ...      1563
Primitive shell pairs kept                  ...      1390
          la=0 lb=0:     64 shell pairs
          la=1 lb=0:     96 shell pairs
          la=1 lb=1:     44 shell pairs
          la=2 lb=0:     74 shell pairs
          la=2 lb=1:     61 shell pairs
          la=2 lb=2:     28 shell pairs
          la=3 lb=0:     53 shell pairs
          la=3 lb=1:     45 shell pairs
          la=3 lb=2:     35 shell pairs
          la=3 lb=3:     15 shell pairs
          la=4 lb=0:     22 shell pairs
          la=4 lb=1:     18 shell pairs
          la=4 lb=2:     14 shell pairs
          la=4 lb=3:     10 shell pairs
          la=4 lb=4:      3 shell pairs

Calculating one electron integrals          ... done (  0.0 sec)
Calculating Nuclear repulsion               ... done (  0.0 sec) ENN=      0.696285800395 Eh

SHARK setup successfully completed in   0.1 seconds

Maximum memory used throughout the entire GTOINT-calculation: 28.9 MB
[cnode16:425731] 7 more processes have sent help message help-mpi-btl-openib.txt / error in device init
[cnode16:425731] Set MCA parameter "orte_base_help_aggregate" to 0 to see all help / error messages
--------------------------------------------------------------------------
WARNING: There was an error initializing an OpenFabrics device.

  Local host:   cnode16
  Local device: mlx5_0
--------------------------------------------------------------------------


           ************************************************************
           *        Program running with 8 parallel MPI-processes     *
           *              working on a common directory               *
           ************************************************************
-------------------------------------------------------------------------------
                                 ORCA SCF
-------------------------------------------------------------------------------

------------
SCF SETTINGS
------------
Hamiltonian:
 Ab initio Hamiltonian  Method          .... Hartree-Fock(GTOs)


General Settings:
 Integral files         IntName         .... /scratch/BH-3.8-O_760/BH-3.8-O
 Hartree-Fock type      HFTyp           .... RHF
 Total Charge           Charge          ....    0
 Multiplicity           Mult            ....    1
 Number of Electrons    NEL             ....    6
 Basis Dimension        Dim             ....  126
 Nuclear Repulsion      ENuc            ....      0.6962858004 Eh

 Symmetry handling      UseSym         .... ON
 Point group                           .... C2v
 Used point group                      .... C2v
 Number of irreps                      .... 4
   Irrep   A1 has   50 symmetry adapted basis functions (ofs=   0)
   Irrep   A2 has   16 symmetry adapted basis functions (ofs=  50)
   Irrep   B1 has   30 symmetry adapted basis functions (ofs=  66)
   Irrep   B2 has   30 symmetry adapted basis functions (ofs=  96)

Convergence Acceleration:
 DIIS                   CNVDIIS         .... on
   Start iteration      DIISMaxIt       ....    12
   Startup error        DIISStart       ....  0.200000
   # of expansion vecs  DIISMaxEq       ....     5
   Bias factor          DIISBfac        ....   1.050
   Max. coefficient     DIISMaxC        ....  10.000
 Trust-Rad. Augm. Hess. CNVTRAH         .... auto
   Auto Start mean grad. ratio tolernc. ....  1.125000
   Auto Start start iteration           ....    20
   Auto Start num. interpolation iter.  ....    10
   Max. Number of Micro iterations      ....    16
   Max. Number of Macro iterations      .... Maxiter - #DIIS iter
   Number of Davidson start vectors     ....     2
   Converg. threshold I  (grad. norm)   ....   2.000e-06
   Converg. threshold II (energy diff.) ....   1.000e-09
   Grad. Scal. Fac. for Micro threshold ....   0.100
   Minimum threshold for Micro iter.    ....   0.010
   NR start threshold (gradient norm)   ....   0.001
   Initial trust radius                 ....   0.400
   Minimum AH scaling param. (alpha)    ....   1.000
   Maximum AH scaling param. (alpha)    .... 1000.000
   Orbital update algorithm             .... Taylor
   White noise on init. David. guess    .... on
   Maximum white noise                  ....   0.010
   Quad. conv. algorithm                .... NR
 SOSCF                  CNVSOSCF        .... on
   Start iteration      SOSCFMaxIt      ....   150
   Startup grad/error   SOSCFStart      ....  0.003300
 Level Shifting         CNVShift        .... on
   Level shift para.    LevelShift      ....    0.2500
   Turn off err/grad.   ShiftErr        ....    0.0010
 Zerner damping         CNVZerner       .... off
 Static damping         CNVDamp         .... on
   Fraction old density DampFac         ....    0.7000
   Max. Damping (<1)    DampMax         ....    0.9800
   Min. Damping (>=0)   DampMin         ....    0.0000
   Turn off err/grad.   DampErr         ....    0.1000
 Fernandez-Rico         CNVRico         .... off

SCF Procedure:
 Maximum # iterations   MaxIter         ....   125
 SCF integral mode      SCFMode         .... Direct
   Integral package                     .... SHARK and LIBINT hybrid scheme
 Reset frequency        DirectResetFreq ....    20
 Integral Threshold     Thresh          ....  1.000e-12 Eh
 Primitive CutOff       TCut            ....  1.000e-14 Eh

Convergence Tolerance:
 Convergence Check Mode ConvCheckMode   .... Total+1el-Energy
 Convergence forced     ConvForced      .... 0
 Energy Change          TolE            ....  1.000e-09 Eh
 1-El. energy change                    ....  1.000e-06 Eh
 Orbital Gradient       TolG            ....  2.000e-06
 Orbital Rotation angle TolX            ....  2.000e-06
 DIIS Error             TolErr          ....  1.000e-08


Diagonalization of the overlap matrix:
Smallest eigenvalue                        ... 4.783e-03
Time for diagonalization                   ...    0.002 sec
Threshold for overlap eigenvalues          ... 1.000e-08
Number of eigenvalues below threshold      ... 0
Time for construction of square roots      ...    0.002 sec
Producing symmetrization matrix            ... done (   0.000 sec)
Total time needed                          ...    0.005 sec

Time for model grid setup =    0.007 sec

------------------------------
INITIAL GUESS: MODEL POTENTIAL
------------------------------
Loading Hartree-Fock densities                     ... done
Calculating cut-offs                               ... done
Initializing the effective Hamiltonian             ... done
Setting up the integral package (SHARK)            ... done
Starting the Coulomb interaction                   ... done (   0.0 sec)
Reading the grid                                   ... done
Mapping shells                                     ... done
Starting the XC term evaluation                    ... done (   0.0 sec)
done (   0.0 sec)
Diagonalizing the Hamiltonian                      ... done (   0.0 sec)
Back transforming the eigenvectors                 ... done (   0.0 sec)
Now organizing SCF variables                       ... done
The symmetry of the initial guess is 1-A1
Irrep occupations for operator 0
    A1 -    3
    A2 -    0
    B1 -    0
    B2 -    0
                      ------------------
                      INITIAL GUESS DONE (   0.0 sec)
                      ------------------
--------------
SCF ITERATIONS
--------------
ITER       Energy         Delta-E        Max-DP      RMS-DP      [F,P]     Damp
               ***  Starting incremental Fock matrix formation  ***
  0    -24.8026697779   0.000000000000 0.04490521  0.00091584  0.1984097 0.7000
  1    -24.8268976660  -0.024227888063 0.04548749  0.00089750  0.1524040 0.7000
                               ***Turning on DIIS***
  2    -24.8516954182  -0.024797752220 0.03773690  0.00076318  0.1040059 0.7000
  3    -24.7796947020   0.072000716234 0.08455492  0.00175988  0.0680197 0.0000
  4    -24.9318690859  -0.152174383930 0.01083528  0.00023722  0.0141913 0.0000
  5    -24.9205185289   0.011350557031 0.00806691  0.00016552  0.0055773 0.0000
                      *** Initiating the SOSCF procedure ***
                           *** Shutting down DIIS ***
                      *** Re-Reading the Fockian *** 
                      *** Removing any level shift *** 
ITER      Energy       Delta-E        Grad      Rot      Max-DP    RMS-DP
  6    -24.91361930   0.0068992239  0.001858  0.001858  0.004395  0.000074
               *** Restarting incremental Fock matrix formation ***
  7    -24.91127330   0.0023460059  0.000582  0.001721  0.002597  0.000049
  8    -24.91127987  -0.0000065703  0.000227  0.001129  0.001934  0.000036
  9    -24.91128117  -0.0000012987  0.000102  0.000383  0.000271  0.000006
 10    -24.91128129  -0.0000001218  0.000012  0.000041  0.000052  0.000001
 11    -24.91128129  -0.0000000028  0.000004  0.000022  0.000013  0.000000
                  ***Gradient check signals convergence***
              ***Rediagonalizing the Fockian in SOSCF/NRSCF***

               *****************************************************
               *                     SUCCESS                       *
               *           SCF CONVERGED AFTER  12 CYCLES          *
               *****************************************************


----------------
TOTAL SCF ENERGY
----------------

Total Energy       :          -24.91128129 Eh            -677.87043 eV

Components:
Nuclear Repulsion  :            0.69628580 Eh              18.94690 eV
Electronic Energy  :          -25.60756709 Eh            -696.81733 eV
One Electron Energy:          -33.72923534 Eh            -917.81915 eV
Two Electron Energy:            8.12166825 Eh             221.00183 eV

Virial components:
Potential Energy   :          -49.66197035 Eh           -1351.37092 eV
Kinetic Energy     :           24.75068906 Eh             673.50049 eV
Virial Ratio       :            2.00648839


---------------
SCF CONVERGENCE
---------------

  Last Energy change         ...   -3.9887e-10  Tolerance :   1.0000e-09
  Last MAX-Density change    ...    2.4383e-06  Tolerance :   1.0000e-08
  Last RMS-Density change    ...    3.9794e-08  Tolerance :   1.0000e-09
  Last Orbital Gradient      ...    4.1603e-07  Tolerance :   2.0000e-06
  Last Orbital Rotation      ...    1.7651e-06  Tolerance :   2.0000e-06

             **** THE GBW FILE WAS UPDATED (/scratch/BH-3.8-O_760/BH-3.8-O.gbw) ****
             **** DENSITY /scratch/BH-3.8-O_760/BH-3.8-O.scfp WAS UPDATED ****
             **** ENERGY FILE WAS UPDATED (/scratch/BH-3.8-O_760/BH-3.8-O.en.tmp) ****
             **** THE GBW FILE WAS UPDATED (/scratch/BH-3.8-O_760/BH-3.8-O.gbw) ****
             **** DENSITY /scratch/BH-3.8-O_760/BH-3.8-O.scfp WAS UPDATED ****
----------------
ORBITAL ENERGIES
----------------

  NO   OCC          E(Eh)            E(eV)    Irrep 
   0   2.0000      -7.884552      -214.5496    1-A1
   1   2.0000      -0.614776       -16.7289    2-A1
   2   2.0000      -0.243619        -6.6292    3-A1
   3   0.0000      -0.063143        -1.7182    4-A1
   4   0.0000      -0.041017        -1.1161    1-B2
   5   0.0000      -0.041017        -1.1161    1-B1
   6   0.0000       0.025240         0.6868    5-A1
   7   0.0000       0.044793         1.2189    2-B2
   8   0.0000       0.044793         1.2189    2-B1
   9   0.0000       0.065350         1.7783    6-A1
  10   0.0000       0.093946         2.5564    7-A1
  11   0.0000       0.122671         3.3381    8-A1
  12   0.0000       0.122671         3.3381    1-A2
  13   0.0000       0.130183         3.5424    3-B2
  14   0.0000       0.130183         3.5424    3-B1
  15   0.0000       0.159765         4.3474    9-A1
  16   0.0000       0.244355         6.6492    4-B1
  17   0.0000       0.244355         6.6492    4-B2
  18   0.0000       0.253573         6.9001   10-A1
  19   0.0000       0.261803         7.1240    5-B2
  20   0.0000       0.261803         7.1240    5-B1
  21   0.0000       0.293355         7.9826   11-A1
  22   0.0000       0.341690         9.2979   12-A1
  23   0.0000       0.421027        11.4567    6-B2
  24   0.0000       0.421027        11.4567    6-B1
  25   0.0000       0.427969        11.6456   13-A1
  26   0.0000       0.427969        11.6456    2-A2
  27   0.0000       0.440423        11.9845   14-A1
  28   0.0000       0.440423        11.9845    3-A2
  29   0.0000       0.446245        12.1430    7-B2
  30   0.0000       0.446245        12.1430    7-B1
  31   0.0000       0.447680        12.1820   15-A1
  32   0.0000       0.463305        12.6072    8-B2
  33   0.0000       0.463305        12.6072    8-B1
  34   0.0000       0.481792        13.1102   16-A1
  35   0.0000       0.573015        15.5925   17-A1
  36   0.0000       0.695136        18.9156    4-A2
  37   0.0000       0.695136        18.9156   18-A1
  38   0.0000       0.756640        20.5892    9-B2
  39   0.0000       0.756640        20.5892    9-B1
  40   0.0000       0.850513        23.1436   19-A1
  41   0.0000       0.877642        23.8819   10-B2
  42   0.0000       0.877642        23.8819   10-B1
  43   0.0000       0.949816        25.8458   11-B1
  44   0.0000       0.949816        25.8458   11-B2
  45   0.0000       0.970966        26.4213   20-A1
  46   0.0000       0.988316        26.8935   21-A1
  47   0.0000       1.295673        35.2570   22-A1
  48   0.0000       1.301185        35.4070    5-A2
  49   0.0000       1.301185        35.4070   23-A1
  50   0.0000       1.308129        35.5960    6-A2
  51   0.0000       1.308129        35.5960   24-A1
  52   0.0000       1.311277        35.6817   12-B2
  53   0.0000       1.311277        35.6817   12-B1
  54   0.0000       1.318484        35.8778   13-B2
  55   0.0000       1.318484        35.8778   13-B1
  56   0.0000       1.318713        35.8840   25-A1
  57   0.0000       1.318713        35.8840    7-A2
  58   0.0000       1.330616        36.2079   14-B2
  59   0.0000       1.330616        36.2079   14-B1
  60   0.0000       1.331217        36.2242   26-A1
  61   0.0000       1.354339        36.8534   15-B1
  62   0.0000       1.354339        36.8534   15-B2
  63   0.0000       1.366902        37.1953   27-A1
  64   0.0000       1.366902        37.1953    8-A2
  65   0.0000       1.386460        37.7275   28-A1
  66   0.0000       1.402933        38.1758   16-B2
  67   0.0000       1.402933        38.1758   16-B1
  68   0.0000       1.512978        41.1702   29-A1
  69   0.0000       1.645793        44.7843   17-B1
  70   0.0000       1.645793        44.7843   17-B2
  71   0.0000       1.655822        45.0572   30-A1
  72   0.0000       1.655822        45.0572    9-A2
  73   0.0000       1.715975        46.6941   18-B1
  74   0.0000       1.715975        46.6941   18-B2
  75   0.0000       1.728018        47.0218   31-A1
  76   0.0000       1.870714        50.9047   32-A1
  77   0.0000       2.559822        69.6563   10-A2
  78   0.0000       2.559822        69.6563   33-A1
  79   0.0000       2.603782        70.8525   19-B2
  80   0.0000       2.603782        70.8525   19-B1
  81   0.0000       2.690864        73.2221   20-B1
  82   0.0000       2.690864        73.2221   20-B2
  83   0.0000       2.707223        73.6673   34-A1
  84   0.0000       2.775998        75.5388   35-A1
  85   0.0000       3.587695        97.6262   21-B1
  86   0.0000       3.587695        97.6262   21-B2
  87   0.0000       3.628780        98.7441   36-A1
  88   0.0000       3.807401       103.6046   11-A2
  89   0.0000       3.807401       103.6046   37-A1
  90   0.0000       3.815138       103.8152   38-A1
  91   0.0000       3.815138       103.8152   12-A2
  92   0.0000       3.818472       103.9059   22-B2
  93   0.0000       3.818472       103.9059   22-B1
  94   0.0000       3.827682       104.1565   39-A1
  95   0.0000       3.827682       104.1565   13-A2
  96   0.0000       3.830144       104.2235   23-B2
  97   0.0000       3.830144       104.2235   23-B1
  98   0.0000       3.838882       104.4613   40-A1
  99   0.0000       3.849488       104.7499   24-B2
 100   0.0000       3.849488       104.7499   24-B1
 101   0.0000       3.950908       107.5097   41-A1
 102   0.0000       3.957450       107.6877   25-B2
 103   0.0000       3.957450       107.6877   25-B1
 104   0.0000       3.971314       108.0650   42-A1
 105   0.0000       3.971314       108.0650   14-A2
 106   0.0000       3.998842       108.8140   26-B1
 107   0.0000       3.998842       108.8140   26-B2
 108   0.0000       4.050684       110.2247   43-A1
 109   0.0000       6.655301       181.1000   27-B1
 110   0.0000       6.655301       181.1000   27-B2
 111   0.0000       6.657991       181.1731   44-A1
 112   0.0000       6.657991       181.1731   15-A2
 113   0.0000       6.672294       181.5624   28-B2
 114   0.0000       6.672294       181.5624   28-B1
 115   0.0000       6.697142       182.2385   45-A1
 116   0.0000       7.566656       205.8992   46-A1
 117   0.0000       8.049577       219.0401   29-B1
 118   0.0000       8.049577       219.0401   29-B2
 119   0.0000       8.095577       220.2918   47-A1
 120   0.0000       8.494230       231.1397   48-A1
 121   0.0000       8.494230       231.1397   16-A2
 122   0.0000       8.524501       231.9635   30-B2
 123   0.0000       8.524501       231.9635   30-B1
 124   0.0000       8.608724       234.2553   49-A1
 125   0.0000      12.914233       351.4141   50-A1

                    ********************************
                    * MULLIKEN POPULATION ANALYSIS *
                    ********************************

-----------------------
MULLIKEN ATOMIC CHARGES
-----------------------
   0 B :    0.376944
   1 H :   -0.376944
Sum of atomic charges:   -0.0000000

--------------------------------
MULLIKEN REDUCED ORBITAL CHARGES
--------------------------------
  0 B s       :     4.007382  s :     4.007382
      pz      :     0.596719  p :     0.596719
      px      :     0.000000
      py      :     0.000000
      dz2     :     0.018324  d :     0.018324
      dxz     :     0.000000
      dyz     :     0.000000
      dx2y2   :     0.000000
      dxy     :     0.000000
      f0      :     0.000624  f :     0.000624
      f+1     :     0.000000
      f-1     :     0.000000
      f+2     :     0.000000
      f-2     :     0.000000
      f+3     :     0.000000
      f-3     :     0.000000
      g0      :     0.000008  g :     0.000008
      g+1     :     0.000000
      g-1     :     0.000000
      g+2     :     0.000000
      g-2     :     0.000000
      g+3     :     0.000000
      g-3     :     0.000000
      g+4     :     0.000000
      g-4     :     0.000000
  1 H s       :     1.369676  s :     1.369676
      pz      :     0.006926  p :     0.006926
      px      :     0.000000
      py      :     0.000000
      dz2     :     0.000326  d :     0.000326
      dxz     :     0.000000
      dyz     :     0.000000
      dx2y2   :     0.000000
      dxy     :     0.000000
      f0      :     0.000015  f :     0.000015
      f+1     :     0.000000
      f-1     :     0.000000
      f+2     :     0.000000
      f-2     :     0.000000
      f+3     :     0.000000
      f-3     :     0.000000


                     *******************************
                     * LOEWDIN POPULATION ANALYSIS *
                     *******************************

----------------------
LOEWDIN ATOMIC CHARGES
----------------------
   0 B :    0.300500
   1 H :   -0.300500

-------------------------------
LOEWDIN REDUCED ORBITAL CHARGES
-------------------------------
  0 B s       :     4.006385  s :     4.006385
      pz      :     0.637838  p :     0.637838
      px      :     0.000000
      py      :     0.000000
      dz2     :     0.048503  d :     0.048503
      dxz     :     0.000000
      dyz     :     0.000000
      dx2y2   :     0.000000
      dxy     :     0.000000
      f0      :     0.006648  f :     0.006648
      f+1     :     0.000000
      f-1     :     0.000000
      f+2     :     0.000000
      f-2     :     0.000000
      f+3     :     0.000000
      f-3     :     0.000000
      g0      :     0.000126  g :     0.000126
      g+1     :     0.000000
      g-1     :     0.000000
      g+2     :     0.000000
      g-2     :     0.000000
      g+3     :     0.000000
      g-3     :     0.000000
      g+4     :     0.000000
      g-4     :     0.000000
  1 H s       :     1.289454  s :     1.289454
      pz      :     0.009801  p :     0.009801
      px      :     0.000000
      py      :     0.000000
      dz2     :     0.001181  d :     0.001181
      dxz     :     0.000000
      dyz     :     0.000000
      dx2y2   :     0.000000
      dxy     :     0.000000
      f0      :     0.000063  f :     0.000063
      f+1     :     0.000000
      f-1     :     0.000000
      f+2     :     0.000000
      f-2     :     0.000000
      f+3     :     0.000000
      f-3     :     0.000000


                      *****************************
                      * MAYER POPULATION ANALYSIS *
                      *****************************

  NA   - Mulliken gross atomic population
  ZA   - Total nuclear charge
  QA   - Mulliken gross atomic charge
  VA   - Mayer's total valence
  BVA  - Mayer's bonded valence
  FA   - Mayer's free valence

  ATOM       NA         ZA         QA         VA         BVA        FA
  0 B      4.6231     5.0000     0.3769     0.8599     0.8599    -0.0000
  1 H      1.3769     1.0000    -0.3769     0.8599     0.8599    -0.0000

  Mayer bond orders larger than 0.100000
B(  0-B ,  1-H ) :   0.8599 

-------
TIMINGS
-------

Total SCF time: 0 days 0 hours 0 min 2 sec 

Total time                  ....       2.284 sec
Sum of individual times     ....       2.128 sec  ( 93.2%)

Fock matrix formation       ....       2.056 sec  ( 90.0%)
Diagonalization             ....       0.024 sec  (  1.1%)
Density matrix formation    ....       0.001 sec  (  0.1%)
Population analysis         ....       0.003 sec  (  0.2%)
Initial guess               ....       0.006 sec  (  0.3%)
Orbital Transformation      ....       0.000 sec  (  0.0%)
Orbital Orthonormalization  ....       0.000 sec  (  0.0%)
DIIS solution               ....       0.016 sec  (  0.7%)
SOSCF solution              ....       0.013 sec  (  0.6%)

Maximum memory used throughout the entire SCF-calculation: 228.5 MB
[cnode16:425802] 7 more processes have sent help message help-mpi-btl-openib.txt / error in device init
[cnode16:425802] Set MCA parameter "orte_base_help_aggregate" to 0 to see all help / error messages

-------------------------   --------------------
FINAL SINGLE POINT ENERGY       -24.911281293090
-------------------------   --------------------


                            ***************************************
                            *     ORCA property calculations      *
                            ***************************************

                                    ---------------------
                                    Active property flags
                                    ---------------------
   (+) Dipole Moment


------------------------------------------------------------------------------
                       ORCA ELECTRIC PROPERTIES CALCULATION
------------------------------------------------------------------------------

Dipole Moment Calculation                       ... on
Quadrupole Moment Calculation                   ... off
Polarizability Calculation                      ... off
GBWName                                         ... /scratch/BH-3.8-O_760/BH-3.8-O.gbw
Electron density file                           ... /scratch/BH-3.8-O_760/BH-3.8-O.scfp
The origin for moment calculation is the CENTER OF MASS  = ( 0.000000,  0.000000 -0.000000)

-------------
DIPOLE MOMENT
-------------
                                X             Y             Z
Electronic contribution:      0.00000       0.00000      -6.49167
Nuclear contribution   :      0.00000       0.00000       3.50602
                        -----------------------------------------
Total Dipole Moment    :      0.00000       0.00000      -2.98565
                        -----------------------------------------
Magnitude (a.u.)       :      2.98565
Magnitude (Debye)      :      7.58891



--------------------
Rotational spectrum 
--------------------
 
Rotational constants in cm-1:     0.000000     1.266157     1.266157 
Rotational constants in MHz :     0.000000 37958.423798 37958.423798 

 Dipole components along the rotational axes: 
x,y,z [a.u.] :    -2.985647     0.000000     0.000000 
x,y,z [Debye]:    -7.588912     0.000000     0.000000 

 
--------------------------------------------------------------------------
WARNING: There was an error initializing an OpenFabrics device.

  Local host:   cnode16
  Local device: mlx5_0
--------------------------------------------------------------------------
[cnode16:425866] 7 more processes have sent help message help-mpi-btl-openib.txt / error in device init
[cnode16:425866] Set MCA parameter "orte_base_help_aggregate" to 0 to see all help / error messages

Timings for individual modules:

Sum of individual times         ...        3.181 sec (=   0.053 min)
GTO integral calculation        ...        0.531 sec (=   0.009 min)  16.7 %
SCF iterations                  ...        2.650 sec (=   0.044 min)  83.3 %
                             ****ORCA TERMINATED NORMALLY****
TOTAL RUN TIME: 0 days 0 hours 0 minutes 3 seconds 608 msec

Sender: Unischeduler System <lcz@mgt01>
Subject: Job 133503: <#!/bin/bash
#BSUB -J intel
#BSUB -o BH-3.8-O.out
#BSUB -n 8
#BSUB -q cqueue
export LD_LIBRARY_PATH=/apps/software/openmpi-4.1.1/lib:/apps/software/orca_5_0_0:$LD_LIBRARY_PATH
export PATH=/apps/software/openmpi-4.1.1/bin:/apps/software/orca_5_0_0:$PATH
mkdir /scratch/BH-3.8-O_760
scp $USER@mgt01:/apps/users/lcz/exe13/RHF/BH-3.8-O.inp /scratch/BH-3.8-O_760
/apps/software/orca_5_0_0/orca /scratch/BH-3.8-O_760/BH-3.8-O.inp >& BH-3.8-O.out
scp /scratch/BH-3.8-O_760/*.gbw $USER@mgt01:/apps/users/lcz/exe13/RHF
scp /scratch/BH-3.8-O_760/*.xyz $USER@mgt01:/apps/users/lcz/exe13/RHF
scp /scratch/BH-3.8-O_760/*.trj $USER@mgt01:/apps/users/lcz/exe13/RHF> Exited

Job <#!/bin/bash
#BSUB -J intel
#BSUB -o BH-3.8-O.out
#BSUB -n 8
#BSUB -q cqueue
export LD_LIBRARY_PATH=/apps/software/openmpi-4.1.1/lib:/apps/software/orca_5_0_0:$LD_LIBRARY_PATH
export PATH=/apps/software/openmpi-4.1.1/bin:/apps/software/orca_5_0_0:$PATH
mkdir /scratch/BH-3.8-O_760
scp $USER@mgt01:/apps/users/lcz/exe13/RHF/BH-3.8-O.inp /scratch/BH-3.8-O_760
/apps/software/orca_5_0_0/orca /scratch/BH-3.8-O_760/BH-3.8-O.inp >& BH-3.8-O.out
scp /scratch/BH-3.8-O_760/*.gbw $USER@mgt01:/apps/users/lcz/exe13/RHF
scp /scratch/BH-3.8-O_760/*.xyz $USER@mgt01:/apps/users/lcz/exe13/RHF
scp /scratch/BH-3.8-O_760/*.trj $USER@mgt01:/apps/users/lcz/exe13/RHF> was submitted from host <mgt01> by user <lcz>.
Job was executed on host(s) <8*cnode16>, in queue <cqueue>, as user <lcz>.
</apps/users/lcz> was used as the home directory.
</apps/users/lcz/exe13/RHF> was used as the working directory.
Started at 2022-05-21 17:14:31
Results reported at 2022-05-21 17:14:37

Your job looked like:

------------------------------------------------------------
# User input
#!/bin/bash
#BSUB -J intel
#BSUB -o BH-3.8-O.out
#BSUB -n 8
#BSUB -q cqueue
export LD_LIBRARY_PATH=/apps/software/openmpi-4.1.1/lib:/apps/software/orca_5_0_0:$LD_LIBRARY_PATH
export PATH=/apps/software/openmpi-4.1.1/bin:/apps/software/orca_5_0_0:$PATH
mkdir /scratch/BH-3.8-O_760
scp $USER@mgt01:/apps/users/lcz/exe13/RHF/BH-3.8-O.inp /scratch/BH-3.8-O_760
/apps/software/orca_5_0_0/orca /scratch/BH-3.8-O_760/BH-3.8-O.inp >& BH-3.8-O.out
scp /scratch/BH-3.8-O_760/*.gbw $USER@mgt01:/apps/users/lcz/exe13/RHF
scp /scratch/BH-3.8-O_760/*.xyz $USER@mgt01:/apps/users/lcz/exe13/RHF
scp /scratch/BH-3.8-O_760/*.trj $USER@mgt01:/apps/users/lcz/exe13/RHF
------------------------------------------------------------

Exited with exit code 1.

Resource usage summary:

    CPU time   :            0.02 sec.
    Max Memory :                 9 MB
    Max Processes  :               2


The output (if any) follows:

/scratch/BH-3.8-O_760/*.xyz: No such file or directory
/scratch/BH-3.8-O_760/*.trj: No such file or directory
