 Entering Gaussian System, Link 0=/apps/software/g16/g16
 Initial command:
 /apps/software/g16/l1.exe "/scratch/Gau-136326.inp" -scrdir="/scratch/"
 Entering Link 1 = /apps/software/g16/l1.exe PID=    136327.
  
 Copyright (c) 1988,1990,1992,1993,1995,1998,2003,2009,2016,
            Gaussian, Inc.  All Rights Reserved.
  
 This is part of the Gaussian(R) 16 program.  It is based on
 the Gaussian(R) 09 system (copyright 2009, Gaussian, Inc.),
 the Gaussian(R) 03 system (copyright 2003, Gaussian, Inc.),
 the Gaussian(R) 98 system (copyright 1998, Gaussian, Inc.),
 the Gaussian(R) 94 system (copyright 1995, Gaussian, Inc.),
 the Gaussian 92(TM) system (copyright 1992, Gaussian, Inc.),
 the Gaussian 90(TM) system (copyright 1990, Gaussian, Inc.),
 the Gaussian 88(TM) system (copyright 1988, Gaussian, Inc.),
 the Gaussian 86(TM) system (copyright 1986, Carnegie Mellon
 University), and the Gaussian 82(TM) system (copyright 1983,
 Carnegie Mellon University). Gaussian is a federally registered
 trademark of Gaussian, Inc.
  
 This software contains proprietary and confidential information,
 including trade secrets, belonging to Gaussian, Inc.
  
 This software is provided under written license and may be
 used, copied, transmitted, or stored only in accord with that
 written license.
  
 The following legend is applicable only to US Government
 contracts under FAR:
  
                    RESTRICTED RIGHTS LEGEND
  
 Use, reproduction and disclosure by the US Government is
 subject to restrictions as set forth in subparagraphs (a)
 and (c) of the Commercial Computer Software - Restricted
 Rights clause in FAR 52.227-19.
  
 Gaussian, Inc.
 340 Quinnipiac St., Bldg. 40, Wallingford CT 06492
  
  
 ---------------------------------------------------------------
 Warning -- This program may not be used in any manner that
 competes with the business of Gaussian, Inc. or will provide
 assistance to any competitor of Gaussian, Inc.  The licensee
 of this program is prohibited from giving any competitor of
 Gaussian, Inc. access to this program.  By using this program,
 the user acknowledges that Gaussian, Inc. is engaged in the
 business of creating and licensing software in the field of
 computational chemistry and represents and warrants to the
 licensee that it is not a competitor of Gaussian, Inc. and that
 it will not use this program in any manner prohibited above.
 ---------------------------------------------------------------
  

 Cite this work as:
 Gaussian 16, Revision A.03,
 M. J. Frisch, G. W. Trucks, H. B. Schlegel, G. E. Scuseria, 
 M. A. Robb, J. R. Cheeseman, G. Scalmani, V. Barone, 
 G. A. Petersson, H. Nakatsuji, X. Li, M. Caricato, A. V. Marenich, 
 J. Bloino, B. G. Janesko, R. Gomperts, B. Mennucci, H. P. Hratchian, 
 J. V. Ortiz, A. F. Izmaylov, J. L. Sonnenberg, D. Williams-Young, 
 F. Ding, F. Lipparini, F. Egidi, J. Goings, B. Peng, A. Petrone, 
 T. Henderson, D. Ranasinghe, V. G. Zakrzewski, J. Gao, N. Rega, 
 G. Zheng, W. Liang, M. Hada, M. Ehara, K. Toyota, R. Fukuda, 
 J. Hasegawa, M. Ishida, T. Nakajima, Y. Honda, O. Kitao, H. Nakai, 
 T. Vreven, K. Throssell, J. A. Montgomery, Jr., J. E. Peralta, 
 F. Ogliaro, M. J. Bearpark, J. J. Heyd, E. N. Brothers, K. N. Kudin, 
 V. N. Staroverov, T. A. Keith, R. Kobayashi, J. Normand, 
 K. Raghavachari, A. P. Rendell, J. C. Burant, S. S. Iyengar, 
 J. Tomasi, M. Cossi, J. M. Millam, M. Klene, C. Adamo, R. Cammi, 
 J. W. Ochterski, R. L. Martin, K. Morokuma, O. Farkas, 
 J. B. Foresman, and D. J. Fox, Gaussian, Inc., Wallingford CT, 2016.
 
 ******************************************
 Gaussian 16:  ES64L-G16RevA.03 25-Dec-2016
                21-May-2022 
 ******************************************
 %chk=BH-3.4-G.chk
 ------------------
 #p RHF/aug-cc-pVQZ
 ------------------
 1/38=1,172=1/1;
 2/12=2,17=6,18=5,40=1/2;
 3/5=16,6=2,7=10,11=1,25=1,30=1,116=1/1,2,3;
 4//1;
 5/5=2,38=5/2;
 6/7=2,8=2,9=2,10=2,28=1/1;
 99/5=1,9=1/99;
 Leave Link    1 at Sat May 21 17:41:35 2022, MaxMem=           0 cpu:               0.0 elap:               0.0
 (Enter /apps/software/g16/l101.exe)
 ----------------------
 BH RHF at 3.4 Angstrom
 ----------------------
 Symbolic Z-matrix:
 Charge =  0 Multiplicity = 1
 B                     0.        0.        0. 
 H                     3.4       0.        0. 
 
 ITRead=  0  0
 MicOpt= -1 -1
 NAtoms=      2 NQM=        2 NQMF=       0 NMMI=      0 NMMIF=      0
                NMic=       0 NMicF=      0.
                    Isotopes and Nuclear Properties:
 (Nuclear quadrupole moments (NQMom) in fm**2, nuclear magnetic moments (NMagM)
  in nuclear magnetons)

  Atom         1           2
 IAtWgt=          11           1
 AtmWgt=  11.0093053   1.0078250
 NucSpn=           3           1
 AtZEff=  -0.0000000  -0.0000000
 NQMom=    4.0590000   0.0000000
 NMagM=    2.6886370   2.7928460
 AtZNuc=   5.0000000   1.0000000
 Leave Link  101 at Sat May 21 17:41:35 2022, MaxMem=   104857600 cpu:               0.1 elap:               0.1
 (Enter /apps/software/g16/l202.exe)
                          Input orientation:                          
 ---------------------------------------------------------------------
 Center     Atomic      Atomic             Coordinates (Angstroms)
 Number     Number       Type             X           Y           Z
 ---------------------------------------------------------------------
      1          5           0        0.000000    0.000000    0.000000
      2          1           0        3.400000    0.000000    0.000000
 ---------------------------------------------------------------------
 Stoichiometry    BH
 Framework group  C*V[C*(HB)]
 Deg. of freedom     1
 Full point group                 C*V     NOp   4
 Largest Abelian subgroup         C2V     NOp   4
 Largest concise Abelian subgroup C1      NOp   1
                         Standard orientation:                         
 ---------------------------------------------------------------------
 Center     Atomic      Atomic             Coordinates (Angstroms)
 Number     Number       Type             X           Y           Z
 ---------------------------------------------------------------------
      1          5           0        0.000000    0.000000    0.566667
      2          1           0        0.000000    0.000000   -2.833333
 ---------------------------------------------------------------------
 Rotational constants (GHZ):           0.0000000          47.3494653          47.3494653
 Leave Link  202 at Sat May 21 17:41:35 2022, MaxMem=   104857600 cpu:               0.0 elap:               0.0
 (Enter /apps/software/g16/l301.exe)
 Standard basis: Aug-CC-pVQZ (5D, 7F)
 Ernie: Thresh=  0.10000D-02 Tol=  0.10000D-05 Strict=F.
 Ernie:  4 primitive shells out of 54 were deleted.
 There are    68 symmetry adapted cartesian basis functions of A1  symmetry.
 There are    18 symmetry adapted cartesian basis functions of A2  symmetry.
 There are    37 symmetry adapted cartesian basis functions of B1  symmetry.
 There are    37 symmetry adapted cartesian basis functions of B2  symmetry.
 There are    50 symmetry adapted basis functions of A1  symmetry.
 There are    16 symmetry adapted basis functions of A2  symmetry.
 There are    30 symmetry adapted basis functions of B1  symmetry.
 There are    30 symmetry adapted basis functions of B2  symmetry.
   126 basis functions,   180 primitive gaussians,   160 cartesian basis functions
     3 alpha electrons        3 beta electrons
       nuclear repulsion energy         0.7782017808 Hartrees.
 IExCor=    0 DFT=F Ex=HF Corr=None ExCW=0 ScaHFX=  1.000000
 ScaDFX=  1.000000  1.000000  1.000000  1.000000 ScalE2=  1.000000  1.000000
 IRadAn=      5 IRanWt=     -1 IRanGd=            0 ICorTp=0 IEmpDi=  4
 NAtoms=    2 NActive=    2 NUniq=    2 SFac= 1.00D+00 NAtFMM=   60 NAOKFM=F Big=F
 Integral buffers will be    131072 words long.
 Raffenetti 1 integral format.
 Two-electron integral symmetry is turned on.
 Leave Link  301 at Sat May 21 17:41:35 2022, MaxMem=   104857600 cpu:               0.1 elap:               0.1
 (Enter /apps/software/g16/l302.exe)
 NPDir=0 NMtPBC=     1 NCelOv=     1 NCel=       1 NClECP=     1 NCelD=      1
         NCelK=      1 NCelE2=     1 NClLst=     1 CellRange=     0.0.
 One-electron integrals computed using PRISM.
 One-electron integral symmetry used in STVInt
 NBasis=   126 RedAO= T EigKep=  4.97D-03  NBF=    50    16    30    30
 NBsUse=   126 1.00D-06 EigRej= -1.00D+00 NBFU=    50    16    30    30
 Leave Link  302 at Sat May 21 17:41:35 2022, MaxMem=   104857600 cpu:               0.1 elap:               0.1
 (Enter /apps/software/g16/l303.exe)
 DipDrv:  MaxL=1.
 Leave Link  303 at Sat May 21 17:41:35 2022, MaxMem=   104857600 cpu:               0.0 elap:               0.0
 (Enter /apps/software/g16/l401.exe)
 ExpMin= 1.88D-02 ExpMax= 2.39D+04 ExpMxC= 2.30D+02 IAcc=3 IRadAn=         5 AccDes= 0.00D+00
 Harris functional with IExCor=  205 and IRadAn=       5 diagonalized for initial guess.
 HarFok:  IExCor=  205 AccDes= 0.00D+00 IRadAn=         5 IDoV= 1 UseB2=F ITyADJ=14
 ICtDFT=  3500011 ScaDFX=  1.000000  1.000000  1.000000  1.000000
 FoFCou: FMM=F IPFlag=           0 FMFlag=      100000 FMFlg1=           0
         NFxFlg=           0 DoJE=T BraDBF=F KetDBF=T FulRan=T
         wScrn=  0.000000 ICntrl=       500 IOpCl=  0 I1Cent=   200000004 NGrid=           0
         NMat0=    1 NMatS0=      1 NMatT0=    0 NMatD0=    1 NMtDS0=    0 NMtDT0=    0
 Petite list used in FoFCou.
 Harris En= -24.9930785135347    
 JPrj=0 DoOrth=F DoCkMO=F.
 Initial guess orbital symmetries:
       Occupied  (SG) (SG) (SG)
       Virtual   (PI) (PI) (SG) (SG) (PI) (PI) (SG) (SG) (PI) (PI)
                 (DLTA) (DLTA) (SG) (PI) (PI) (SG) (PI) (PI) (SG)
                 (SG) (SG) (PI) (PI) (DLTA) (DLTA) (DLTA) (DLTA)
                 (PHI) (PHI) (SG) (PI) (PI) (SG) (DLTA) (DLTA)
                 (PI) (PI) (PI) (PI) (SG) (SG) (PI) (PI) (SG) (SG)
                 (PI) (PI) (DLTA) (DLTA) (SG) (PI) (PI) (DLTA)
                 (DLTA) (PHI) (PHI) (?A) (?A) (PHI) (PHI) (DLTA)
                 (DLTA) (SG) (PI) (PI) (PHI) (PHI) (SG) (DLTA)
                 (DLTA) (SG) (PI) (PI) (SG) (DLTA) (DLTA) (PI)
                 (PI) (PI) (PI) (SG) (SG) (PI) (PI) (SG) (DLTA)
                 (DLTA) (PI) (PI) (SG) (?A) (PHI) (PHI) (?A) (DLTA)
                 (DLTA) (PI) (PI) (PHI) (PHI) (DLTA) (DLTA) (PI)
                 (PI) (SG) (SG) (PHI) (PHI) (DLTA) (DLTA) (PI)
                 (PI) (SG) (SG) (PI) (PI) (SG) (DLTA) (DLTA) (PI)
                 (PI) (SG) (SG)
 The electronic state of the initial guess is 1-SG.
 Leave Link  401 at Sat May 21 17:41:35 2022, MaxMem=   104857600 cpu:               0.2 elap:               0.2
 (Enter /apps/software/g16/l502.exe)
 Keep R1 ints in memory in symmetry-blocked form, NReq=40143665.
 FoFCou: FMM=F IPFlag=           0 FMFlag=           0 FMFlg1=           0
         NFxFlg=           0 DoJE=F BraDBF=F KetDBF=F FulRan=T
         wScrn=  0.000000 ICntrl=       600 IOpCl=  0 I1Cent=           0 NGrid=           0
         NMat0=    1 NMatS0=   8001 NMatT0=    0 NMatD0=    1 NMtDS0=    0 NMtDT0=    0
 Petite list used in FoFCou.
 Closed shell SCF:
 Using DIIS extrapolation, IDIIS=  1040.
 NGot=   104857600 LenX=    96673173 LenY=    96647132
 Requested convergence on RMS density matrix=1.00D-08 within 128 cycles.
 Requested convergence on MAX density matrix=1.00D-06.
 Requested convergence on             energy=1.00D-06.
 No special actions if energy rises.

 Cycle   1  Pass 1  IDiag  1:
 E= -24.8184667806858    
 DIIS: error= 4.20D-02 at cycle   1 NSaved=   1.
 NSaved= 1 IEnMin= 1 EnMin= -24.8184667806858     IErMin= 1 ErrMin= 4.20D-02
 ErrMax= 4.20D-02  0.00D+00 EMaxC= 1.00D-01 BMatC= 6.03D-02 BMatP= 6.03D-02
 IDIUse=3 WtCom= 5.80D-01 WtEn= 4.20D-01
 Coeff-Com:  0.100D+01
 Coeff-En:   0.100D+01
 Coeff:      0.100D+01
 Gap=     0.000 Goal=   None    Shift=    0.000
 GapD=    0.000 DampG=0.250 DampE=0.500 DampFc=0.2500 IDamp=-1.
 Damping current iteration by 2.50D-01
 RMSDP=3.62D-03 MaxDP=1.41D-01              OVMax= 1.28D-01

 Cycle   2  Pass 1  IDiag  1:
 E= -24.8470516936393     Delta-E=       -0.028584912953 Rises=F Damp=T
 DIIS: error= 2.74D-02 at cycle   2 NSaved=   2.
 NSaved= 2 IEnMin= 2 EnMin= -24.8470516936393     IErMin= 2 ErrMin= 2.74D-02
 ErrMax= 2.74D-02  0.00D+00 EMaxC= 1.00D-01 BMatC= 2.67D-02 BMatP= 6.03D-02
 IDIUse=3 WtCom= 7.26D-01 WtEn= 2.74D-01
 Coeff-Com: -0.170D+01 0.270D+01
 Coeff-En:   0.000D+00 0.100D+01
 Coeff:     -0.123D+01 0.223D+01
 Gap=     0.111 Goal=   None    Shift=    0.000
 RMSDP=1.08D-03 MaxDP=4.70D-02 DE=-2.86D-02 OVMax= 4.64D-01

 Cycle   3  Pass 1  IDiag  1:
 E= -24.9230759495137     Delta-E=       -0.076024255874 Rises=F Damp=F
 DIIS: error= 1.00D-02 at cycle   3 NSaved=   3.
 NSaved= 3 IEnMin= 3 EnMin= -24.9230759495137     IErMin= 3 ErrMin= 1.00D-02
 ErrMax= 1.00D-02  0.00D+00 EMaxC= 1.00D-01 BMatC= 2.25D-03 BMatP= 2.67D-02
 IDIUse=3 WtCom= 9.00D-01 WtEn= 1.00D-01
 Coeff-Com: -0.740D+00 0.969D+00 0.771D+00
 Coeff-En:   0.000D+00 0.000D+00 0.100D+01
 Coeff:     -0.666D+00 0.872D+00 0.794D+00
 Gap=     0.201 Goal=   None    Shift=    0.000
 RMSDP=4.04D-04 MaxDP=1.49D-02 DE=-7.60D-02 OVMax= 6.12D-02

 Cycle   4  Pass 1  IDiag  1:
 E= -24.9295713464143     Delta-E=       -0.006495396901 Rises=F Damp=F
 DIIS: error= 3.42D-03 at cycle   4 NSaved=   4.
 NSaved= 4 IEnMin= 4 EnMin= -24.9295713464143     IErMin= 4 ErrMin= 3.42D-03
 ErrMax= 3.42D-03  0.00D+00 EMaxC= 1.00D-01 BMatC= 2.79D-04 BMatP= 2.25D-03
 IDIUse=3 WtCom= 9.66D-01 WtEn= 3.42D-02
 Coeff-Com: -0.546D-01 0.870D-01-0.447D+00 0.141D+01
 Coeff-En:   0.000D+00 0.000D+00 0.000D+00 0.100D+01
 Coeff:     -0.527D-01 0.840D-01-0.431D+00 0.140D+01
 Gap=     0.212 Goal=   None    Shift=    0.000
 RMSDP=2.07D-04 MaxDP=6.86D-03 DE=-6.50D-03 OVMax= 2.01D-02

 Cycle   5  Pass 1  IDiag  1:
 E= -24.9304713807815     Delta-E=       -0.000900034367 Rises=F Damp=F
 DIIS: error= 8.92D-04 at cycle   5 NSaved=   5.
 NSaved= 5 IEnMin= 5 EnMin= -24.9304713807815     IErMin= 5 ErrMin= 8.92D-04
 ErrMax= 8.92D-04  0.00D+00 EMaxC= 1.00D-01 BMatC= 2.36D-05 BMatP= 2.79D-04
 IDIUse=3 WtCom= 9.91D-01 WtEn= 8.92D-03
 Coeff-Com: -0.161D-01 0.189D-01 0.133D+00-0.778D+00 0.164D+01
 Coeff-En:   0.000D+00 0.000D+00 0.000D+00 0.000D+00 0.100D+01
 Coeff:     -0.159D-01 0.187D-01 0.132D+00-0.771D+00 0.164D+01
 Gap=     0.212 Goal=   None    Shift=    0.000
 RMSDP=9.63D-05 MaxDP=3.02D-03 DE=-9.00D-04 OVMax= 8.01D-03

 Cycle   6  Pass 1  IDiag  1:
 E= -24.9305585294786     Delta-E=       -0.000087148697 Rises=F Damp=F
 DIIS: error= 8.81D-05 at cycle   6 NSaved=   6.
 NSaved= 6 IEnMin= 6 EnMin= -24.9305585294786     IErMin= 6 ErrMin= 8.81D-05
 ErrMax= 8.81D-05  0.00D+00 EMaxC= 1.00D-01 BMatC= 2.24D-07 BMatP= 2.36D-05
 IDIUse=1 WtCom= 1.00D+00 WtEn= 0.00D+00
 Coeff-Com:  0.996D-03-0.313D-03-0.480D-01 0.256D+00-0.571D+00 0.136D+01
 Coeff:      0.996D-03-0.313D-03-0.480D-01 0.256D+00-0.571D+00 0.136D+01
 Gap=     0.212 Goal=   None    Shift=    0.000
 RMSDP=1.05D-05 MaxDP=4.23D-04 DE=-8.71D-05 OVMax= 9.65D-04

 Cycle   7  Pass 1  IDiag  1:
 E= -24.9305593791767     Delta-E=       -0.000000849698 Rises=F Damp=F
 DIIS: error= 1.08D-05 at cycle   7 NSaved=   7.
 NSaved= 7 IEnMin= 7 EnMin= -24.9305593791767     IErMin= 7 ErrMin= 1.08D-05
 ErrMax= 1.08D-05  0.00D+00 EMaxC= 1.00D-01 BMatC= 2.62D-09 BMatP= 2.24D-07
 IDIUse=1 WtCom= 1.00D+00 WtEn= 0.00D+00
 Coeff-Com: -0.919D-03 0.959D-03 0.131D-01-0.665D-01 0.149D+00-0.398D+00
 Coeff-Com:  0.130D+01
 Coeff:     -0.919D-03 0.959D-03 0.131D-01-0.665D-01 0.149D+00-0.398D+00
 Coeff:      0.130D+01
 Gap=     0.212 Goal=   None    Shift=    0.000
 RMSDP=1.62D-06 MaxDP=7.15D-05 DE=-8.50D-07 OVMax= 1.85D-04

 Cycle   8  Pass 1  IDiag  1:
 E= -24.9305593989445     Delta-E=       -0.000000019768 Rises=F Damp=F
 DIIS: error= 6.41D-06 at cycle   8 NSaved=   8.
 NSaved= 8 IEnMin= 8 EnMin= -24.9305593989445     IErMin= 8 ErrMin= 6.41D-06
 ErrMax= 6.41D-06  0.00D+00 EMaxC= 1.00D-01 BMatC= 8.72D-10 BMatP= 2.62D-09
 IDIUse=1 WtCom= 1.00D+00 WtEn= 0.00D+00
 Coeff-Com: -0.138D-03 0.180D-03 0.905D-04-0.265D-02 0.457D-02-0.181D-01
 Coeff-Com: -0.211D+00 0.123D+01
 Coeff:     -0.138D-03 0.180D-03 0.905D-04-0.265D-02 0.457D-02-0.181D-01
 Coeff:     -0.211D+00 0.123D+01
 Gap=     0.212 Goal=   None    Shift=    0.000
 RMSDP=7.11D-07 MaxDP=2.69D-05 DE=-1.98D-08 OVMax= 6.77D-05

 Cycle   9  Pass 1  IDiag  1:
 E= -24.9305594025041     Delta-E=       -0.000000003560 Rises=F Damp=F
 DIIS: error= 9.64D-07 at cycle   9 NSaved=   9.
 NSaved= 9 IEnMin= 9 EnMin= -24.9305594025041     IErMin= 9 ErrMin= 9.64D-07
 ErrMax= 9.64D-07  0.00D+00 EMaxC= 1.00D-01 BMatC= 3.49D-11 BMatP= 8.72D-10
 IDIUse=1 WtCom= 1.00D+00 WtEn= 0.00D+00
 Coeff-Com: -0.376D-04 0.555D-04-0.931D-04 0.408D-03 0.372D-04 0.660D-02
 Coeff-Com:  0.365D-01-0.415D+00 0.137D+01
 Coeff:     -0.376D-04 0.555D-04-0.931D-04 0.408D-03 0.372D-04 0.660D-02
 Coeff:      0.365D-01-0.415D+00 0.137D+01
 Gap=     0.212 Goal=   None    Shift=    0.000
 RMSDP=9.12D-08 MaxDP=3.06D-06 DE=-3.56D-09 OVMax= 7.57D-06

 Cycle  10  Pass 1  IDiag  1:
 E= -24.9305594025964     Delta-E=       -0.000000000092 Rises=F Damp=F
 DIIS: error= 2.40D-07 at cycle  10 NSaved=  10.
 NSaved=10 IEnMin=10 EnMin= -24.9305594025964     IErMin=10 ErrMin= 2.40D-07
 ErrMax= 2.40D-07  0.00D+00 EMaxC= 1.00D-01 BMatC= 2.34D-12 BMatP= 3.49D-11
 IDIUse=1 WtCom= 1.00D+00 WtEn= 0.00D+00
 Coeff-Com: -0.361D-05 0.327D-05 0.546D-04-0.358D-03 0.589D-03-0.373D-02
 Coeff-Com: -0.513D-03 0.870D-01-0.378D+00 0.130D+01
 Coeff:     -0.361D-05 0.327D-05 0.546D-04-0.358D-03 0.589D-03-0.373D-02
 Coeff:     -0.513D-03 0.870D-01-0.378D+00 0.130D+01
 Gap=     0.212 Goal=   None    Shift=    0.000
 RMSDP=2.37D-08 MaxDP=1.04D-06 DE=-9.23D-11 OVMax= 1.82D-06

 Cycle  11  Pass 1  IDiag  1:
 E= -24.9305594026027     Delta-E=       -0.000000000006 Rises=F Damp=F
 DIIS: error= 2.56D-08 at cycle  11 NSaved=  11.
 NSaved=11 IEnMin=11 EnMin= -24.9305594026027     IErMin=11 ErrMin= 2.56D-08
 ErrMax= 2.56D-08  0.00D+00 EMaxC= 1.00D-01 BMatC= 1.65D-14 BMatP= 2.34D-12
 IDIUse=1 WtCom= 1.00D+00 WtEn= 0.00D+00
 Coeff-Com: -0.271D-06 0.478D-06-0.382D-05 0.299D-04-0.214D-04 0.547D-03
 Coeff-Com: -0.686D-03-0.115D-01 0.630D-01-0.380D+00 0.133D+01
 Coeff:     -0.271D-06 0.478D-06-0.382D-05 0.299D-04-0.214D-04 0.547D-03
 Coeff:     -0.686D-03-0.115D-01 0.630D-01-0.380D+00 0.133D+01
 Gap=     0.212 Goal=   None    Shift=    0.000
 RMSDP=2.71D-09 MaxDP=1.08D-07 DE=-6.24D-12 OVMax= 1.86D-07

 SCF Done:  E(RHF) =  -24.9305594026     A.U. after   11 cycles
            NFock= 11  Conv=0.27D-08     -V/T= 2.0074
 KE= 2.474664512961D+01 PE=-5.869412201914D+01 EE= 8.238715706158D+00
 Leave Link  502 at Sat May 21 17:41:39 2022, MaxMem=   104857600 cpu:               3.6 elap:               3.6
 (Enter /apps/software/g16/l601.exe)
 Copying SCF densities to generalized density rwf, IOpCl= 0 IROHF=0.

 **********************************************************************

            Population analysis using the SCF density.

 **********************************************************************

 Orbital symmetries:
       Occupied  (SG) (SG) (SG)
       Virtual   (SG) (PI) (PI) (SG) (PI) (PI) (SG) (SG) (DLTA)
                 (DLTA) (PI) (PI) (SG) (PI) (PI) (SG) (PI) (PI)
                 (SG) (SG) (PHI) (PHI) (DLTA) (DLTA) (DLTA) (DLTA)
                 (PI) (PI) (SG) (PI) (PI) (SG) (SG) (DLTA) (DLTA)
                 (PI) (PI) (PI) (PI) (SG) (SG) (PI) (PI) (SG) (SG)
                 (?A) (?A) (DLTA) (DLTA) (PHI) (PHI) (DLTA) (DLTA)
                 (PI) (PI) (PI) (PI) (SG) (PHI) (PHI) (DLTA) (DLTA)
                 (SG) (PI) (PI) (SG) (PHI) (PHI) (DLTA) (DLTA)
                 (SG) (PI) (PI) (SG) (DLTA) (DLTA) (PI) (PI) (PI)
                 (PI) (SG) (SG) (PI) (PI) (SG) (?A) (?A) (DLTA)
                 (DLTA) (PHI) (PHI) (PI) (PI) (DLTA) (DLTA) (SG)
                 (PI) (PI) (PHI) (PHI) (DLTA) (DLTA) (PI) (PI)
                 (SG) (SG) (PHI) (PHI) (DLTA) (DLTA) (PI) (PI)
                 (SG) (SG) (PI) (PI) (SG) (DLTA) (DLTA) (PI) (PI)
                 (SG) (SG)
 The electronic state is 1-SG.
 Alpha  occ. eigenvalues --   -7.87347  -0.60449  -0.25706
 Alpha virt. eigenvalues --   -0.04510  -0.03240  -0.03240   0.02846   0.04765
 Alpha virt. eigenvalues --    0.04765   0.06842   0.08988   0.12677   0.12677
 Alpha virt. eigenvalues --    0.13335   0.13335   0.16388   0.24803   0.24803
 Alpha virt. eigenvalues --    0.26935   0.27130   0.27130   0.29707   0.34012
 Alpha virt. eigenvalues --    0.42718   0.42718   0.43396   0.43396   0.44793
 Alpha virt. eigenvalues --    0.44793   0.45247   0.45247   0.45940   0.48210
 Alpha virt. eigenvalues --    0.48210   0.50288   0.59059   0.70026   0.70026
 Alpha virt. eigenvalues --    0.79041   0.79041   0.88281   0.88281   0.90012
 Alpha virt. eigenvalues --    0.93648   0.95771   0.95771   1.03844   1.30423
 Alpha virt. eigenvalues --    1.30940   1.30940   1.31691   1.31691   1.32017
 Alpha virt. eigenvalues --    1.32017   1.32441   1.32441   1.33080   1.33080
 Alpha virt. eigenvalues --    1.33504   1.33504   1.33520   1.36319   1.36319
 Alpha virt. eigenvalues --    1.37908   1.37908   1.41654   1.43498   1.43498
 Alpha virt. eigenvalues --    1.61394   1.64226   1.64226   1.67446   1.67446
 Alpha virt. eigenvalues --    1.77664   1.80699   1.80699   1.92831   2.56223
 Alpha virt. eigenvalues --    2.56223   2.63741   2.63741   2.69362   2.69362
 Alpha virt. eigenvalues --    2.76695   2.81571   3.59834   3.59834   3.66564
 Alpha virt. eigenvalues --    3.81735   3.81735   3.82559   3.82559   3.82925
 Alpha virt. eigenvalues --    3.82925   3.84098   3.84098   3.84348   3.84348
 Alpha virt. eigenvalues --    3.85542   3.90404   3.90404   3.96787   3.96787
 Alpha virt. eigenvalues --    3.98430   3.98430   4.01537   4.01537   4.05593
 Alpha virt. eigenvalues --    4.08820   6.65267   6.65267   6.66039   6.66039
 Alpha virt. eigenvalues --    6.69585   6.69585   6.73828   7.58235   8.05141
 Alpha virt. eigenvalues --    8.05141   8.13863   8.49551   8.49551   8.54538
 Alpha virt. eigenvalues --    8.54538   8.64660  12.94390
          Condensed to atoms (all electrons):
               1          2
     1  B    4.471864   0.177381
     2  H    0.177381   1.173374
 Mulliken charges:
               1
     1  B    0.350755
     2  H   -0.350755
 Sum of Mulliken charges =   0.00000
 Mulliken charges with hydrogens summed into heavy atoms:
               1
     1  B    0.000000
 Electronic spatial extent (au):  <R**2>=             64.5579
 Charge=             -0.0000 electrons
 Dipole moment (field-independent basis, Debye):
    X=              0.0000    Y=              0.0000    Z=              6.4760  Tot=              6.4760
 Quadrupole moment (field-independent basis, Debye-Ang):
   XX=             -8.8577   YY=             -8.8577   ZZ=            -22.8463
   XY=              0.0000   XZ=              0.0000   YZ=              0.0000
 Traceless Quadrupole moment (field-independent basis, Debye-Ang):
   XX=              4.6629   YY=              4.6629   ZZ=             -9.3257
   XY=              0.0000   XZ=              0.0000   YZ=              0.0000
 Octapole moment (field-independent basis, Debye-Ang**2):
  XXX=              0.0000  YYY=              0.0000  ZZZ=             46.7571  XYY=              0.0000
  XXY=              0.0000  XXZ=              7.1906  XZZ=              0.0000  YZZ=              0.0000
  YYZ=              7.1906  XYZ=              0.0000
 Hexadecapole moment (field-independent basis, Debye-Ang**3):
 XXXX=            -18.0068 YYYY=            -18.0068 ZZZZ=           -257.5436 XXXY=              0.0000
 XXXZ=              0.0000 YYYX=              0.0000 YYYZ=              0.0000 ZZZX=              0.0000
 ZZZY=              0.0000 XXYY=             -6.0023 XXZZ=            -34.4192 YYZZ=            -34.4192
 XXYZ=              0.0000 YYXZ=              0.0000 ZZXY=              0.0000
 N-N= 7.782017807647D-01 E-N=-5.869412231040D+01  KE= 2.474664512961D+01
 Symmetry A1   KE= 2.474664512961D+01
 Symmetry A2   KE= 1.114427194873D-52
 Symmetry B1   KE= 0.000000000000D+00
 Symmetry B2   KE= 0.000000000000D+00
 No NMR shielding tensors so no spin-rotation constants.
 Leave Link  601 at Sat May 21 17:41:39 2022, MaxMem=   104857600 cpu:               0.1 elap:               0.1
 (Enter /apps/software/g16/l9999.exe)
 1\1\GINC-CNODE01\SP\RHF\Aug-CC-pVQZ\B1H1\LCZ\21-May-2022\0\\#p RHF/aug
 -cc-pVQZ\\BH RHF at 3.4 Angstrom\\0,1\B,0,0.,0.,0.\H,0,3.4,0.,0.\\Vers
 ion=ES64L-G16RevA.03\State=1-SG\HF=-24.9305594\RMSD=2.709e-09\Dipole=-
 2.5478571,0.,0.\Quadrupole=-6.9334545,3.4667273,3.4667273,0.,0.,0.\PG=
 C*V [C*(H1B1)]\\@


 LIFE CAN ONLY BE UNDERSTOOD BACKWARD, BUT MUST
 BE LIVED FORWARD. -- KIRKEGAARD
 Job cpu time:       0 days  0 hours  0 minutes  4.3 seconds.
 Elapsed time:       0 days  0 hours  0 minutes  4.3 seconds.
 File lengths (MBytes):  RWF=     10 Int=      0 D2E=      0 Chk=      3 Scr=      1
 Normal termination of Gaussian 16 at Sat May 21 17:41:39 2022.

Sender: Unischeduler System <lcz@mgt01>
Subject: Job 133537: <#!/bin/bash
#BSUB -J intel
#BSUB -o BH-3.4-G.out
#BSUB -n 8
#BSUB -q cqueue
#BSUB -R span[hosts=1]
export g16root=/apps/software
source /apps/software/g16/bsd/g16.profile
export GAUSS_SCRDIR=/scratch
/apps/software/g16/g16 < BH-3.4-G.inp > BH-3.4-G.out> Done

Job <#!/bin/bash
#BSUB -J intel
#BSUB -o BH-3.4-G.out
#BSUB -n 8
#BSUB -q cqueue
#BSUB -R span[hosts=1]
export g16root=/apps/software
source /apps/software/g16/bsd/g16.profile
export GAUSS_SCRDIR=/scratch
/apps/software/g16/g16 < BH-3.4-G.inp > BH-3.4-G.out> was submitted from host <mgt01> by user <lcz>.
Job was executed on host(s) <8*cnode01>, in queue <cqueue>, as user <lcz>.
</apps/users/lcz> was used as the home directory.
</apps/users/lcz/exe13/RHF> was used as the working directory.
Started at 2022-05-21 17:41:35
Results reported at 2022-05-21 17:41:39

Your job looked like:

------------------------------------------------------------
# User input
#!/bin/bash
#BSUB -J intel
#BSUB -o BH-3.4-G.out
#BSUB -n 8
#BSUB -q cqueue
#BSUB -R span[hosts=1]
export g16root=/apps/software
source /apps/software/g16/bsd/g16.profile
export GAUSS_SCRDIR=/scratch
/apps/software/g16/g16 < BH-3.4-G.inp > BH-3.4-G.out
------------------------------------------------------------

Successfully completed.

Resource usage summary:

    CPU time   :            3.01 sec.
    Max Memory :               478 MB
    Max Processes  :               5


The output (if any) follows:

