 Entering Gaussian System, Link 0=/apps/software/g16/g16
 Initial command:
 /apps/software/g16/l1.exe "/scratch/Gau-136451.inp" -scrdir="/scratch/"
 Entering Link 1 = /apps/software/g16/l1.exe PID=    136452.
  
 Copyright (c) 1988,1990,1992,1993,1995,1998,2003,2009,2016,
            Gaussian, Inc.  All Rights Reserved.
  
 This is part of the Gaussian(R) 16 program.  It is based on
 the Gaussian(R) 09 system (copyright 2009, Gaussian, Inc.),
 the Gaussian(R) 03 system (copyright 2003, Gaussian, Inc.),
 the Gaussian(R) 98 system (copyright 1998, Gaussian, Inc.),
 the Gaussian(R) 94 system (copyright 1995, Gaussian, Inc.),
 the Gaussian 92(TM) system (copyright 1992, Gaussian, Inc.),
 the Gaussian 90(TM) system (copyright 1990, Gaussian, Inc.),
 the Gaussian 88(TM) system (copyright 1988, Gaussian, Inc.),
 the Gaussian 86(TM) system (copyright 1986, Carnegie Mellon
 University), and the Gaussian 82(TM) system (copyright 1983,
 Carnegie Mellon University). Gaussian is a federally registered
 trademark of Gaussian, Inc.
  
 This software contains proprietary and confidential information,
 including trade secrets, belonging to Gaussian, Inc.
  
 This software is provided under written license and may be
 used, copied, transmitted, or stored only in accord with that
 written license.
  
 The following legend is applicable only to US Government
 contracts under FAR:
  
                    RESTRICTED RIGHTS LEGEND
  
 Use, reproduction and disclosure by the US Government is
 subject to restrictions as set forth in subparagraphs (a)
 and (c) of the Commercial Computer Software - Restricted
 Rights clause in FAR 52.227-19.
  
 Gaussian, Inc.
 340 Quinnipiac St., Bldg. 40, Wallingford CT 06492
  
  
 ---------------------------------------------------------------
 Warning -- This program may not be used in any manner that
 competes with the business of Gaussian, Inc. or will provide
 assistance to any competitor of Gaussian, Inc.  The licensee
 of this program is prohibited from giving any competitor of
 Gaussian, Inc. access to this program.  By using this program,
 the user acknowledges that Gaussian, Inc. is engaged in the
 business of creating and licensing software in the field of
 computational chemistry and represents and warrants to the
 licensee that it is not a competitor of Gaussian, Inc. and that
 it will not use this program in any manner prohibited above.
 ---------------------------------------------------------------
  

 Cite this work as:
 Gaussian 16, Revision A.03,
 M. J. Frisch, G. W. Trucks, H. B. Schlegel, G. E. Scuseria, 
 M. A. Robb, J. R. Cheeseman, G. Scalmani, V. Barone, 
 G. A. Petersson, H. Nakatsuji, X. Li, M. Caricato, A. V. Marenich, 
 J. Bloino, B. G. Janesko, R. Gomperts, B. Mennucci, H. P. Hratchian, 
 J. V. Ortiz, A. F. Izmaylov, J. L. Sonnenberg, D. Williams-Young, 
 F. Ding, F. Lipparini, F. Egidi, J. Goings, B. Peng, A. Petrone, 
 T. Henderson, D. Ranasinghe, V. G. Zakrzewski, J. Gao, N. Rega, 
 G. Zheng, W. Liang, M. Hada, M. Ehara, K. Toyota, R. Fukuda, 
 J. Hasegawa, M. Ishida, T. Nakajima, Y. Honda, O. Kitao, H. Nakai, 
 T. Vreven, K. Throssell, J. A. Montgomery, Jr., J. E. Peralta, 
 F. Ogliaro, M. J. Bearpark, J. J. Heyd, E. N. Brothers, K. N. Kudin, 
 V. N. Staroverov, T. A. Keith, R. Kobayashi, J. Normand, 
 K. Raghavachari, A. P. Rendell, J. C. Burant, S. S. Iyengar, 
 J. Tomasi, M. Cossi, J. M. Millam, M. Klene, C. Adamo, R. Cammi, 
 J. W. Ochterski, R. L. Martin, K. Morokuma, O. Farkas, 
 J. B. Foresman, and D. J. Fox, Gaussian, Inc., Wallingford CT, 2016.
 
 ******************************************
 Gaussian 16:  ES64L-G16RevA.03 25-Dec-2016
                21-May-2022 
 ******************************************
 %chk=BH-4.8-G.chk
 ------------------
 #p RHF/aug-cc-pVQZ
 ------------------
 1/38=1,172=1/1;
 2/12=2,17=6,18=5,40=1/2;
 3/5=16,6=2,7=10,11=1,25=1,30=1,116=1/1,2,3;
 4//1;
 5/5=2,38=5/2;
 6/7=2,8=2,9=2,10=2,28=1/1;
 99/5=1,9=1/99;
 Leave Link    1 at Sat May 21 17:42:11 2022, MaxMem=           0 cpu:               0.0 elap:               0.0
 (Enter /apps/software/g16/l101.exe)
 ----------------------
 BH RHF at 4.8 Angstrom
 ----------------------
 Symbolic Z-matrix:
 Charge =  0 Multiplicity = 1
 B                     0.        0.        0. 
 H                     4.8       0.        0. 
 
 ITRead=  0  0
 MicOpt= -1 -1
 NAtoms=      2 NQM=        2 NQMF=       0 NMMI=      0 NMMIF=      0
                NMic=       0 NMicF=      0.
                    Isotopes and Nuclear Properties:
 (Nuclear quadrupole moments (NQMom) in fm**2, nuclear magnetic moments (NMagM)
  in nuclear magnetons)

  Atom         1           2
 IAtWgt=          11           1
 AtmWgt=  11.0093053   1.0078250
 NucSpn=           3           1
 AtZEff=  -0.0000000  -0.0000000
 NQMom=    4.0590000   0.0000000
 NMagM=    2.6886370   2.7928460
 AtZNuc=   5.0000000   1.0000000
 Leave Link  101 at Sat May 21 17:42:11 2022, MaxMem=   104857600 cpu:               0.1 elap:               0.1
 (Enter /apps/software/g16/l202.exe)
                          Input orientation:                          
 ---------------------------------------------------------------------
 Center     Atomic      Atomic             Coordinates (Angstroms)
 Number     Number       Type             X           Y           Z
 ---------------------------------------------------------------------
      1          5           0        0.000000    0.000000    0.000000
      2          1           0        4.800000    0.000000    0.000000
 ---------------------------------------------------------------------
 Stoichiometry    BH
 Framework group  C*V[C*(HB)]
 Deg. of freedom     1
 Full point group                 C*V     NOp   4
 Largest Abelian subgroup         C2V     NOp   4
 Largest concise Abelian subgroup C1      NOp   1
                         Standard orientation:                         
 ---------------------------------------------------------------------
 Center     Atomic      Atomic             Coordinates (Angstroms)
 Number     Number       Type             X           Y           Z
 ---------------------------------------------------------------------
      1          5           0        0.000000    0.000000    0.800000
      2          1           0        0.000000    0.000000   -4.000000
 ---------------------------------------------------------------------
 Rotational constants (GHZ):           0.0000000          23.7569366          23.7569366
 Leave Link  202 at Sat May 21 17:42:11 2022, MaxMem=   104857600 cpu:               0.0 elap:               0.0
 (Enter /apps/software/g16/l301.exe)
 Standard basis: Aug-CC-pVQZ (5D, 7F)
 Ernie: Thresh=  0.10000D-02 Tol=  0.10000D-05 Strict=F.
 Ernie:  4 primitive shells out of 54 were deleted.
 There are    68 symmetry adapted cartesian basis functions of A1  symmetry.
 There are    18 symmetry adapted cartesian basis functions of A2  symmetry.
 There are    37 symmetry adapted cartesian basis functions of B1  symmetry.
 There are    37 symmetry adapted cartesian basis functions of B2  symmetry.
 There are    50 symmetry adapted basis functions of A1  symmetry.
 There are    16 symmetry adapted basis functions of A2  symmetry.
 There are    30 symmetry adapted basis functions of B1  symmetry.
 There are    30 symmetry adapted basis functions of B2  symmetry.
   126 basis functions,   180 primitive gaussians,   160 cartesian basis functions
     3 alpha electrons        3 beta electrons
       nuclear repulsion energy         0.5512262614 Hartrees.
 IExCor=    0 DFT=F Ex=HF Corr=None ExCW=0 ScaHFX=  1.000000
 ScaDFX=  1.000000  1.000000  1.000000  1.000000 ScalE2=  1.000000  1.000000
 IRadAn=      5 IRanWt=     -1 IRanGd=            0 ICorTp=0 IEmpDi=  4
 NAtoms=    2 NActive=    2 NUniq=    2 SFac= 1.00D+00 NAtFMM=   60 NAOKFM=F Big=F
 Integral buffers will be    131072 words long.
 Raffenetti 1 integral format.
 Two-electron integral symmetry is turned on.
 Leave Link  301 at Sat May 21 17:42:11 2022, MaxMem=   104857600 cpu:               0.1 elap:               0.1
 (Enter /apps/software/g16/l302.exe)
 NPDir=0 NMtPBC=     1 NCelOv=     1 NCel=       1 NClECP=     1 NCelD=      1
         NCelK=      1 NCelE2=     1 NClLst=     1 CellRange=     0.0.
 One-electron integrals computed using PRISM.
 One-electron integral symmetry used in STVInt
 NBasis=   126 RedAO= T EigKep=  1.20D-02  NBF=    50    16    30    30
 NBsUse=   126 1.00D-06 EigRej= -1.00D+00 NBFU=    50    16    30    30
 Leave Link  302 at Sat May 21 17:42:11 2022, MaxMem=   104857600 cpu:               0.1 elap:               0.1
 (Enter /apps/software/g16/l303.exe)
 DipDrv:  MaxL=1.
 Leave Link  303 at Sat May 21 17:42:11 2022, MaxMem=   104857600 cpu:               0.0 elap:               0.0
 (Enter /apps/software/g16/l401.exe)
 ExpMin= 1.88D-02 ExpMax= 2.39D+04 ExpMxC= 2.30D+02 IAcc=3 IRadAn=         5 AccDes= 0.00D+00
 Harris functional with IExCor=  205 and IRadAn=       5 diagonalized for initial guess.
 HarFok:  IExCor=  205 AccDes= 0.00D+00 IRadAn=         5 IDoV= 1 UseB2=F ITyADJ=14
 ICtDFT=  3500011 ScaDFX=  1.000000  1.000000  1.000000  1.000000
 FoFCou: FMM=F IPFlag=           0 FMFlag=      100000 FMFlg1=           0
         NFxFlg=           0 DoJE=T BraDBF=F KetDBF=T FulRan=T
         wScrn=  0.000000 ICntrl=       500 IOpCl=  0 I1Cent=   200000004 NGrid=           0
         NMat0=    1 NMatS0=      1 NMatT0=    0 NMatD0=    1 NMtDS0=    0 NMtDT0=    0
 Petite list used in FoFCou.
 Harris En= -24.9884042595512    
 JPrj=0 DoOrth=F DoCkMO=F.
 Initial guess orbital symmetries:
       Occupied  (SG) (SG) (SG)
       Virtual   (SG) (PI) (PI) (SG) (PI) (PI) (SG) (SG) (PI) (PI)
                 (SG) (DLTA) (DLTA) (PI) (PI) (SG) (PI) (PI) (SG)
                 (SG) (SG) (SG) (DLTA) (DLTA) (PI) (PI) (PI) (PI)
                 (DLTA) (DLTA) (PHI) (PHI) (SG) (DLTA) (DLTA) (PI)
                 (PI) (SG) (PI) (PI) (SG) (PI) (PI) (SG) (SG) (DLTA)
                 (DLTA) (PI) (PI) (SG) (DLTA) (DLTA) (?A) (PHI)
                 (PHI) (?A) (PI) (PI) (SG) (DLTA) (DLTA) (PHI)
                 (PHI) (PI) (PI) (SG) (SG) (PHI) (PHI) (DLTA) (DLTA)
                 (PI) (PI) (SG) (DLTA) (DLTA) (PI) (PI) (SG) (PI)
                 (PI) (SG) (PI) (PI) (SG) (DLTA) (DLTA) (PI) (PI)
                 (SG) (DLTA) (?A) (?B) (?B) (?A) (DLTA) (?B) (?B)
                 (SG) (PHI) (PHI) (DLTA) (DLTA) (PI) (PI) (SG)
                 (PHI) (PHI) (DLTA) (DLTA) (PI) (PI) (SG) (SG)
                 (PI) (PI) (SG) (DLTA) (DLTA) (PI) (PI) (SG) (SG)
 The electronic state of the initial guess is 1-SG.
 Leave Link  401 at Sat May 21 17:42:12 2022, MaxMem=   104857600 cpu:               0.2 elap:               0.2
 (Enter /apps/software/g16/l502.exe)
 Keep R1 ints in memory in symmetry-blocked form, NReq=40143665.
 FoFCou: FMM=F IPFlag=           0 FMFlag=           0 FMFlg1=           0
         NFxFlg=           0 DoJE=F BraDBF=F KetDBF=F FulRan=T
         wScrn=  0.000000 ICntrl=       600 IOpCl=  0 I1Cent=           0 NGrid=           0
         NMat0=    1 NMatS0=   8001 NMatT0=    0 NMatD0=    1 NMtDS0=    0 NMtDT0=    0
 Petite list used in FoFCou.
 Closed shell SCF:
 Using DIIS extrapolation, IDIIS=  1040.
 NGot=   104857600 LenX=    96673173 LenY=    96647132
 Requested convergence on RMS density matrix=1.00D-08 within 128 cycles.
 Requested convergence on MAX density matrix=1.00D-06.
 Requested convergence on             energy=1.00D-06.
 No special actions if energy rises.

 Cycle   1  Pass 1  IDiag  1:
 E= -24.7511941186102    
 DIIS: error= 4.11D-02 at cycle   1 NSaved=   1.
 NSaved= 1 IEnMin= 1 EnMin= -24.7511941186102     IErMin= 1 ErrMin= 4.11D-02
 ErrMax= 4.11D-02  0.00D+00 EMaxC= 1.00D-01 BMatC= 6.04D-02 BMatP= 6.04D-02
 IDIUse=3 WtCom= 5.89D-01 WtEn= 4.11D-01
 Coeff-Com:  0.100D+01
 Coeff-En:   0.100D+01
 Coeff:      0.100D+01
 Gap=     0.000 Goal=   None    Shift=    0.000
 GapD=    0.000 DampG=0.250 DampE=0.500 DampFc=0.2500 IDamp=-1.
 Damping current iteration by 2.50D-01
 RMSDP=4.84D-03 MaxDP=2.21D-01              OVMax= 1.05D-01

 Cycle   2  Pass 1  IDiag  1:
 E= -24.7968922714936     Delta-E=       -0.045698152883 Rises=F Damp=T
 DIIS: error= 2.61D-02 at cycle   2 NSaved=   2.
 NSaved= 2 IEnMin= 2 EnMin= -24.7968922714936     IErMin= 2 ErrMin= 2.61D-02
 ErrMax= 2.61D-02  0.00D+00 EMaxC= 1.00D-01 BMatC= 2.33D-02 BMatP= 6.04D-02
 IDIUse=3 WtCom= 7.39D-01 WtEn= 2.61D-01
 Coeff-Com: -0.116D+01 0.216D+01
 Coeff-En:   0.000D+00 0.100D+01
 Coeff:     -0.859D+00 0.186D+01
 Gap=     0.151 Goal=   None    Shift=    0.000
 RMSDP=1.31D-03 MaxDP=8.45D-02 DE=-4.57D-02 OVMax= 1.73D-01

 Cycle   3  Pass 1  IDiag  1:
 E= -24.7942343596096     Delta-E=        0.002657911884 Rises=F Damp=F
 DIIS: error= 1.63D-02 at cycle   3 NSaved=   3.
 NSaved= 3 IEnMin= 2 EnMin= -24.7968922714936     IErMin= 3 ErrMin= 1.63D-02
 ErrMax= 1.63D-02  0.00D+00 EMaxC= 1.00D-01 BMatC= 1.28D-02 BMatP= 2.33D-02
 IDIUse=3 WtCom= 8.37D-01 WtEn= 1.63D-01
 Coeff-Com: -0.104D+01 0.136D+01 0.685D+00
 Coeff-En:   0.000D+00 0.559D+00 0.441D+00
 Coeff:     -0.871D+00 0.123D+01 0.645D+00
 Gap=     0.052 Goal=   None    Shift=    0.000
 RMSDP=6.78D-04 MaxDP=2.97D-02 DE= 2.66D-03 OVMax= 7.02D-02

 Cycle   4  Pass 1  IDiag  1:
 E= -24.8182928636861     Delta-E=       -0.024058504076 Rises=F Damp=F
 DIIS: error= 1.12D-02 at cycle   4 NSaved=   4.
 NSaved= 4 IEnMin= 4 EnMin= -24.8182928636861     IErMin= 4 ErrMin= 1.12D-02
 ErrMax= 1.12D-02  0.00D+00 EMaxC= 1.00D-01 BMatC= 5.83D-03 BMatP= 1.28D-02
 IDIUse=3 WtCom= 8.88D-01 WtEn= 1.12D-01
 Coeff-Com: -0.867D+00 0.115D+01 0.236D+00 0.484D+00
 Coeff-En:   0.000D+00 0.000D+00 0.000D+00 0.100D+01
 Coeff:     -0.770D+00 0.102D+01 0.209D+00 0.542D+00
 Gap=     0.044 Goal=   None    Shift=    0.000
 RMSDP=3.01D-04 MaxDP=1.18D-02 DE=-2.41D-02 OVMax= 3.92D-02

 Cycle   5  Pass 1  IDiag  1:
 E= -24.8269188891696     Delta-E=       -0.008626025483 Rises=F Damp=F
 DIIS: error= 1.09D-02 at cycle   5 NSaved=   5.
 NSaved= 5 IEnMin= 5 EnMin= -24.8269188891696     IErMin= 5 ErrMin= 1.09D-02
 ErrMax= 1.09D-02  0.00D+00 EMaxC= 1.00D-01 BMatC= 4.01D-03 BMatP= 5.83D-03
 IDIUse=3 WtCom= 8.91D-01 WtEn= 1.09D-01
 Coeff-Com: -0.879D+00 0.114D+01 0.797D+00-0.147D+01 0.141D+01
 Coeff-En:   0.000D+00 0.000D+00 0.000D+00 0.000D+00 0.100D+01
 Coeff:     -0.784D+00 0.102D+01 0.710D+00-0.131D+01 0.137D+01
 Gap=     0.050 Goal=   None    Shift=    0.000
 RMSDP=1.01D-04 MaxDP=5.53D-03 DE=-8.63D-03 OVMax= 1.94D-02

 Cycle   6  Pass 1  IDiag  1:
 E= -24.8286765255594     Delta-E=       -0.001757636390 Rises=F Damp=F
 DIIS: error= 1.16D-02 at cycle   6 NSaved=   6.
 NSaved= 6 IEnMin= 6 EnMin= -24.8286765255594     IErMin= 5 ErrMin= 1.09D-02
 ErrMax= 1.16D-02  0.00D+00 EMaxC= 1.00D-01 BMatC= 4.08D-03 BMatP= 4.01D-03
 IDIUse=3 WtCom= 8.91D-01 WtEn= 1.09D-01
 Large coefficients: NSaved=  6 BigCof=   13.51 CofMax=   10.00 Det=-5.25D-07
 Inversion failed.  Reducing to  5 matrices.
 Large coefficients: NSaved=  5 BigCof=   27.53 CofMax=   10.00 Det=-8.04D-07
 Inversion failed.  Reducing to  4 matrices.
 Large coefficients: NSaved=  4 BigCof=   13.03 CofMax=   10.00 Det=-8.07D-06
 Inversion failed.  Reducing to  3 matrices.
 Large coefficients: NSaved=  3 BigCof=   12.90 CofMax=   10.00 Det=-8.09D-06
 Inversion failed.  Reducing to  2 matrices.
 Coeff-Com:  0.393D+01-0.293D+01
 Coeff-En:   0.000D+00 0.100D+01
 Coeff:      0.350D+01-0.250D+01
 Gap=     0.012 Goal=   None    Shift=    0.000
 RMSDP=4.50D-03 MaxDP=2.17D-01 DE=-1.76D-03 OVMax= 8.68D-02

 Cycle   7  Pass 1  IDiag  1:
 E= -24.4638945636451     Delta-E=        0.364781961914 Rises=F Damp=F
 DIIS: error= 4.79D-02 at cycle   7 NSaved=   3.
 NSaved= 3 IEnMin= 2 EnMin= -24.8286765255594     IErMin= 1 ErrMin= 1.09D-02
 ErrMax= 4.79D-02  0.00D+00 EMaxC= 1.00D-01 BMatC= 3.98D-02 BMatP= 4.01D-03
 IDIUse=2 WtCom= 0.00D+00 WtEn= 1.00D+00
 Coeff-En:   0.000D+00 0.886D+00 0.114D+00
 Coeff:      0.000D+00 0.886D+00 0.114D+00
 Gap=     0.034 Goal=   None    Shift=    0.000
 RMSDP=4.38D-03 MaxDP=2.17D-01 DE= 3.65D-01 OVMax= 4.75D-02

 Cycle   8  Pass 1  IDiag  1:
 E= -24.8674545296977     Delta-E=       -0.403559966053 Rises=F Damp=F
 DIIS: error= 8.49D-03 at cycle   8 NSaved=   4.
 NSaved= 4 IEnMin= 4 EnMin= -24.8674545296977     IErMin= 4 ErrMin= 8.49D-03
 ErrMax= 8.49D-03  0.00D+00 EMaxC= 1.00D-01 BMatC= 8.75D-04 BMatP= 4.01D-03
 IDIUse=3 WtCom= 9.15D-01 WtEn= 8.49D-02
 Coeff-Com:  0.649D+01-0.650D+01 0.450D-01 0.964D+00
 Coeff-En:   0.000D+00 0.000D+00 0.000D+00 0.100D+01
 Coeff:      0.594D+01-0.595D+01 0.412D-01 0.967D+00
 Gap=     0.063 Goal=   None    Shift=    0.000
 RMSDP=7.09D-04 MaxDP=2.43D-02 DE=-4.04D-01 OVMax= 1.59D-01

 Cycle   9  Pass 1  IDiag  1:
 E= -24.8775698698101     Delta-E=       -0.010115340112 Rises=F Damp=F
 DIIS: error= 3.81D-03 at cycle   9 NSaved=   5.
 NSaved= 5 IEnMin= 5 EnMin= -24.8775698698101     IErMin= 5 ErrMin= 3.81D-03
 ErrMax= 3.81D-03  0.00D+00 EMaxC= 1.00D-01 BMatC= 4.47D-04 BMatP= 8.75D-04
 IDIUse=3 WtCom= 9.62D-01 WtEn= 3.81D-02
 Coeff-Com: -0.227D+01 0.264D+01-0.496D-02-0.455D+00 0.109D+01
 Coeff-En:   0.000D+00 0.000D+00 0.000D+00 0.000D+00 0.100D+01
 Coeff:     -0.218D+01 0.254D+01-0.477D-02-0.438D+00 0.108D+01
 Gap=     0.112 Goal=   None    Shift=    0.000
 RMSDP=4.03D-04 MaxDP=1.89D-02 DE=-1.01D-02 OVMax= 6.13D-02

 Cycle  10  Pass 1  IDiag  1:
 E= -24.8780111387603     Delta-E=       -0.000441268950 Rises=F Damp=F
 DIIS: error= 3.89D-03 at cycle  10 NSaved=   6.
 NSaved= 6 IEnMin= 6 EnMin= -24.8780111387603     IErMin= 5 ErrMin= 3.81D-03
 ErrMax= 3.89D-03  0.00D+00 EMaxC= 1.00D-01 BMatC= 3.86D-04 BMatP= 4.47D-04
 IDIUse=3 WtCom= 9.62D-01 WtEn= 3.81D-02
 Coeff-Com: -0.234D+00 0.181D+00 0.299D-02 0.690D+00-0.123D+01 0.159D+01
 Coeff-En:   0.000D+00 0.000D+00 0.000D+00 0.000D+00 0.000D+00 0.100D+01
 Coeff:     -0.225D+00 0.174D+00 0.287D-02 0.663D+00-0.118D+01 0.156D+01
 Gap=     0.125 Goal=   None    Shift=    0.000
 RMSDP=2.73D-04 MaxDP=7.95D-03 DE=-4.41D-04 OVMax= 4.42D-02

 Cycle  11  Pass 1  IDiag  1:
 E= -24.8792581997053     Delta-E=       -0.001247060945 Rises=F Damp=F
 DIIS: error= 5.31D-04 at cycle  11 NSaved=   7.
 NSaved= 7 IEnMin= 7 EnMin= -24.8792581997053     IErMin= 7 ErrMin= 5.31D-04
 ErrMax= 5.31D-04  0.00D+00 EMaxC= 1.00D-01 BMatC= 4.84D-06 BMatP= 3.86D-04
 IDIUse=3 WtCom= 9.95D-01 WtEn= 5.31D-03
 Coeff-Com:  0.502D+00-0.496D+00 0.278D-03-0.128D+00 0.140D+00-0.220D+00
 Coeff-Com:  0.120D+01
 Coeff-En:   0.000D+00 0.000D+00 0.000D+00 0.000D+00 0.000D+00 0.000D+00
 Coeff-En:   0.100D+01
 Coeff:      0.499D+00-0.493D+00 0.276D-03-0.127D+00 0.139D+00-0.219D+00
 Coeff:      0.120D+01
 Gap=     0.127 Goal=   None    Shift=    0.000
 RMSDP=7.03D-05 MaxDP=2.02D-03 DE=-1.25D-03 OVMax= 1.18D-02

 Cycle  12  Pass 1  IDiag  1:
 E= -24.8792997583652     Delta-E=       -0.000041558660 Rises=F Damp=F
 DIIS: error= 2.17D-04 at cycle  12 NSaved=   8.
 NSaved= 8 IEnMin= 8 EnMin= -24.8792997583652     IErMin= 8 ErrMin= 2.17D-04
 ErrMax= 2.17D-04  0.00D+00 EMaxC= 1.00D-01 BMatC= 1.61D-06 BMatP= 4.84D-06
 IDIUse=3 WtCom= 9.98D-01 WtEn= 2.17D-03
 Coeff-Com: -0.305D-01 0.336D-01-0.243D-03 0.196D-02-0.225D-02-0.634D-01
 Coeff-Com: -0.116D+00 0.118D+01
 Coeff-En:   0.000D+00 0.000D+00 0.000D+00 0.000D+00 0.000D+00 0.000D+00
 Coeff-En:   0.000D+00 0.100D+01
 Coeff:     -0.305D-01 0.335D-01-0.243D-03 0.196D-02-0.225D-02-0.633D-01
 Coeff:     -0.116D+00 0.118D+01
 Gap=     0.129 Goal=   None    Shift=    0.000
 RMSDP=1.93D-05 MaxDP=7.08D-04 DE=-4.16D-05 OVMax= 1.69D-03

 Cycle  13  Pass 1  IDiag  1:
 E= -24.8793044986467     Delta-E=       -0.000004740281 Rises=F Damp=F
 DIIS: error= 6.84D-05 at cycle  13 NSaved=   9.
 NSaved= 9 IEnMin= 9 EnMin= -24.8793044986467     IErMin= 9 ErrMin= 6.84D-05
 ErrMax= 6.84D-05  0.00D+00 EMaxC= 1.00D-01 BMatC= 8.46D-08 BMatP= 1.61D-06
 IDIUse=1 WtCom= 1.00D+00 WtEn= 0.00D+00
 Coeff-Com: -0.605D-02 0.682D-02 0.487D-04 0.175D-02 0.239D-02 0.162D-01
 Coeff-Com:  0.436D-01-0.517D+00 0.145D+01
 Coeff:     -0.605D-02 0.682D-02 0.487D-04 0.175D-02 0.239D-02 0.162D-01
 Coeff:      0.436D-01-0.517D+00 0.145D+01
 Gap=     0.129 Goal=   None    Shift=    0.000
 RMSDP=4.65D-06 MaxDP=1.65D-04 DE=-4.74D-06 OVMax= 7.55D-04

 Cycle  14  Pass 1  IDiag  1:
 E= -24.8793048424907     Delta-E=       -0.000000343844 Rises=F Damp=F
 DIIS: error= 5.03D-06 at cycle  14 NSaved=  10.
 NSaved=10 IEnMin=10 EnMin= -24.8793048424907     IErMin=10 ErrMin= 5.03D-06
 ErrMax= 5.03D-06  0.00D+00 EMaxC= 1.00D-01 BMatC= 7.28D-10 BMatP= 8.46D-08
 IDIUse=1 WtCom= 1.00D+00 WtEn= 0.00D+00
 Coeff-Com:  0.853D-02-0.869D-02-0.278D-05-0.755D-03-0.212D-02-0.367D-02
 Coeff-Com: -0.164D-01 0.190D+00-0.705D+00 0.154D+01
 Coeff:      0.853D-02-0.869D-02-0.278D-05-0.755D-03-0.212D-02-0.367D-02
 Coeff:     -0.164D-01 0.190D+00-0.705D+00 0.154D+01
 Gap=     0.129 Goal=   None    Shift=    0.000
 RMSDP=1.27D-06 MaxDP=5.61D-05 DE=-3.44D-07 OVMax= 1.51D-04

 Cycle  15  Pass 1  IDiag  1:
 E= -24.8793048472536     Delta-E=       -0.000000004763 Rises=F Damp=F
 DIIS: error= 4.56D-06 at cycle  15 NSaved=  11.
 NSaved=11 IEnMin=11 EnMin= -24.8793048472536     IErMin=11 ErrMin= 4.56D-06
 ErrMax= 4.56D-06  0.00D+00 EMaxC= 1.00D-01 BMatC= 5.20D-10 BMatP= 7.28D-10
 IDIUse=1 WtCom= 1.00D+00 WtEn= 0.00D+00
 Coeff-Com: -0.283D-03 0.328D-03-0.134D-05-0.813D-04 0.123D-03-0.943D-03
 Coeff-Com:  0.369D-02-0.116D-01 0.400D-01-0.199D+00 0.117D+01
 Coeff:     -0.283D-03 0.328D-03-0.134D-05-0.813D-04 0.123D-03-0.943D-03
 Coeff:      0.369D-02-0.116D-01 0.400D-01-0.199D+00 0.117D+01
 Gap=     0.129 Goal=   None    Shift=    0.000
 RMSDP=2.90D-07 MaxDP=1.07D-05 DE=-4.76D-09 OVMax= 3.58D-05

 Cycle  16  Pass 1  IDiag  1:
 E= -24.8793048488677     Delta-E=       -0.000000001614 Rises=F Damp=F
 DIIS: error= 5.12D-07 at cycle  16 NSaved=  12.
 NSaved=12 IEnMin=12 EnMin= -24.8793048488677     IErMin=12 ErrMin= 5.12D-07
 ErrMax= 5.12D-07  0.00D+00 EMaxC= 1.00D-01 BMatC= 4.43D-12 BMatP= 5.20D-10
 IDIUse=1 WtCom= 1.00D+00 WtEn= 0.00D+00
 Coeff-Com:  0.319D-04-0.327D-04 0.200D-06 0.112D-04 0.287D-04 0.118D-03
 Coeff-Com: -0.768D-03 0.321D-02-0.774D-02 0.337D-01-0.362D+00 0.133D+01
 Coeff:      0.319D-04-0.327D-04 0.200D-06 0.112D-04 0.287D-04 0.118D-03
 Coeff:     -0.768D-03 0.321D-02-0.774D-02 0.337D-01-0.362D+00 0.133D+01
 Gap=     0.129 Goal=   None    Shift=    0.000
 RMSDP=2.89D-08 MaxDP=1.30D-06 DE=-1.61D-09 OVMax= 4.74D-06

 Cycle  17  Pass 1  IDiag  1:
 E= -24.8793048488845     Delta-E=       -0.000000000017 Rises=F Damp=F
 DIIS: error= 1.91D-08 at cycle  17 NSaved=  13.
 NSaved=13 IEnMin=13 EnMin= -24.8793048488845     IErMin=13 ErrMin= 1.91D-08
 ErrMax= 1.91D-08  0.00D+00 EMaxC= 1.00D-01 BMatC= 1.27D-14 BMatP= 4.43D-12
 IDIUse=1 WtCom= 1.00D+00 WtEn= 0.00D+00
 Coeff-Com: -0.137D-05 0.170D-05-0.180D-07 0.528D-06-0.114D-04-0.128D-04
 Coeff-Com:  0.187D-03-0.107D-02 0.288D-02-0.871D-02 0.845D-01-0.376D+00
 Coeff-Com:  0.130D+01
 Coeff:     -0.137D-05 0.170D-05-0.180D-07 0.528D-06-0.114D-04-0.128D-04
 Coeff:      0.187D-03-0.107D-02 0.288D-02-0.871D-02 0.845D-01-0.376D+00
 Coeff:      0.130D+01
 Gap=     0.129 Goal=   None    Shift=    0.000
 RMSDP=4.51D-09 MaxDP=1.65D-07 DE=-1.68D-11 OVMax= 4.36D-07

 SCF Done:  E(RHF) =  -24.8793048489     A.U. after   17 cycles
            NFock= 17  Conv=0.45D-08     -V/T= 2.0045
 KE= 2.476777678582D+01 PE=-5.813832950486D+01 EE= 7.940021608780D+00
 Leave Link  502 at Sat May 21 17:42:15 2022, MaxMem=   104857600 cpu:               3.4 elap:               3.4
 (Enter /apps/software/g16/l601.exe)
 Copying SCF densities to generalized density rwf, IOpCl= 0 IROHF=0.

 **********************************************************************

            Population analysis using the SCF density.

 **********************************************************************

 Orbital symmetries:
       Occupied  (SG) (SG) (SG)
       Virtual   (SG) (PI) (PI) (SG) (PI) (PI) (SG) (SG) (DLTA)
                 (DLTA) (PI) (PI) (SG) (SG) (PI) (PI) (PI) (PI)
                 (SG) (SG) (PHI) (PHI) (DLTA) (DLTA) (SG) (DLTA)
                 (DLTA) (PI) (PI) (PI) (PI) (SG) (SG) (DLTA) (DLTA)
                 (PI) (PI) (SG) (PI) (PI) (SG) (PI) (PI) (SG) (SG)
                 (?A) (?A) (DLTA) (DLTA) (PHI) (PHI) (DLTA) (DLTA)
                 (PI) (PI) (PI) (PI) (SG) (SG) (PHI) (PHI) (DLTA)
                 (DLTA) (PI) (PI) (SG) (PHI) (PHI) (DLTA) (DLTA)
                 (PI) (PI) (SG) (SG) (DLTA) (DLTA) (PI) (PI) (SG)
                 (PI) (PI) (SG) (PI) (PI) (SG) (?A) (?A) (DLTA)
                 (DLTA) (PHI) (PHI) (DLTA) (DLTA) (PI) (PI) (PI)
                 (PI) (SG) (SG) (PHI) (PHI) (DLTA) (DLTA) (PI)
                 (PI) (SG) (PHI) (PHI) (DLTA) (DLTA) (PI) (PI)
                 (SG) (SG) (PI) (PI) (SG) (DLTA) (DLTA) (PI) (PI)
                 (SG) (SG)
 The electronic state is 1-SG.
 Alpha  occ. eigenvalues --   -7.89581  -0.62817  -0.22127
 Alpha virt. eigenvalues --   -0.09217  -0.05323  -0.05323   0.02035   0.03969
 Alpha virt. eigenvalues --    0.03969   0.05705   0.10163   0.11454   0.11454
 Alpha virt. eigenvalues --    0.12221   0.12221   0.14577   0.22951   0.24055
 Alpha virt. eigenvalues --    0.24055   0.24455   0.24455   0.28630   0.31450
 Alpha virt. eigenvalues --    0.41034   0.41034   0.41773   0.41773   0.42663
 Alpha virt. eigenvalues --    0.42779   0.42779   0.42831   0.42831   0.43874
 Alpha virt. eigenvalues --    0.43874   0.46153   0.53039   0.69373   0.69373
 Alpha virt. eigenvalues --    0.71046   0.71046   0.73961   0.86648   0.86648
 Alpha virt. eigenvalues --    0.91552   0.93518   0.93518   0.99640   1.28238
 Alpha virt. eigenvalues --    1.28875   1.28875   1.29545   1.29545   1.29725
 Alpha virt. eigenvalues --    1.29725   1.30375   1.30375   1.30800   1.30800
 Alpha virt. eigenvalues --    1.30963   1.30963   1.31661   1.32561   1.34165
 Alpha virt. eigenvalues --    1.34165   1.35200   1.35200   1.36447   1.36447
 Alpha virt. eigenvalues --    1.40853   1.65144   1.65144   1.65195   1.65195
 Alpha virt. eigenvalues --    1.65730   1.65730   1.66721   1.75097   2.56062
 Alpha virt. eigenvalues --    2.56062   2.56990   2.56990   2.59283   2.68215
 Alpha virt. eigenvalues --    2.68215   2.74464   3.57438   3.57438   3.60627
 Alpha virt. eigenvalues --    3.79452   3.79452   3.80281   3.80281   3.80489
 Alpha virt. eigenvalues --    3.80489   3.81247   3.81247   3.81675   3.81675
 Alpha virt. eigenvalues --    3.81747   3.81747   3.82309   3.82937   3.94473
 Alpha virt. eigenvalues --    3.94473   3.95623   3.95623   3.96725   3.96725
 Alpha virt. eigenvalues --    3.99658   6.65966   6.65966   6.66002   6.66002
 Alpha virt. eigenvalues --    6.66139   6.66139   6.66441   7.52694   8.04610
 Alpha virt. eigenvalues --    8.04610   8.08710   8.49596   8.49596   8.50181
 Alpha virt. eigenvalues --    8.50181   8.52491  12.86036
          Condensed to atoms (all electrons):
               1          2
     1  B    4.514513   0.079095
     2  H    0.079095   1.327298
 Mulliken charges:
               1
     1  B    0.406393
     2  H   -0.406393
 Sum of Mulliken charges =  -0.00000
 Mulliken charges with hydrogens summed into heavy atoms:
               1
     1  B   -0.000000
 Electronic spatial extent (au):  <R**2>=            111.3407
 Charge=             -0.0000 electrons
 Dipole moment (field-independent basis, Debye):
    X=              0.0000    Y=              0.0000    Z=              9.8411  Tot=              9.8411
 Quadrupole moment (field-independent basis, Debye-Ang):
   XX=             -9.2916   YY=             -9.2916   ZZ=            -38.9523
   XY=              0.0000   XZ=              0.0000   YZ=              0.0000
 Traceless Quadrupole moment (field-independent basis, Debye-Ang):
   XX=              9.8869   YY=              9.8869   ZZ=            -19.7738
   XY=              0.0000   XZ=              0.0000   YZ=              0.0000
 Octapole moment (field-independent basis, Debye-Ang**2):
  XXX=              0.0000  YYY=              0.0000  ZZZ=            136.3133  XYY=              0.0000
  XXY=              0.0000  XXZ=             11.6301  XZZ=              0.0000  YZZ=              0.0000
  YYZ=             11.6301  XYZ=              0.0000
 Hexadecapole moment (field-independent basis, Debye-Ang**3):
 XXXX=            -21.9472 YYYY=            -21.9472 ZZZZ=           -799.2507 XXXY=              0.0000
 XXXZ=              0.0000 YYYX=              0.0000 YYYZ=              0.0000 ZZZX=              0.0000
 ZZZY=              0.0000 XXYY=             -7.3157 XXZZ=            -69.9429 YYZZ=            -69.9429
 XXYZ=              0.0000 YYXZ=              0.0000 ZZXY=              0.0000
 N-N= 5.512262613750D-01 E-N=-5.813832994040D+01  KE= 2.476777678582D+01
 Symmetry A1   KE= 2.476777678582D+01
 Symmetry A2   KE= 3.969649215705D-50
 Symmetry B1   KE= 0.000000000000D+00
 Symmetry B2   KE= 0.000000000000D+00
 No NMR shielding tensors so no spin-rotation constants.
 Leave Link  601 at Sat May 21 17:42:15 2022, MaxMem=   104857600 cpu:               0.1 elap:               0.1
 (Enter /apps/software/g16/l9999.exe)
 1\1\GINC-CNODE01\SP\RHF\Aug-CC-pVQZ\B1H1\LCZ\21-May-2022\0\\#p RHF/aug
 -cc-pVQZ\\BH RHF at 4.8 Angstrom\\0,1\B,0,0.,0.,0.\H,0,4.8,0.,0.\\Vers
 ion=ES64L-G16RevA.03\State=1-SG\HF=-24.8793048\RMSD=4.514e-09\Dipole=-
 3.8717942,0.,0.\Quadrupole=-14.7013361,7.350668,7.350668,0.,0.,0.\PG=C
 *V [C*(H1B1)]\\@


 WE HAVE SEEN THAT MAN ON THE AVERAGE DOES NOT LIVE ABOVE
 TWO-AND-TWENTY YEARS.  DURING THESE TWO AND TWENTY
 YEARS HE IS LIABLE TO TWO AND TWENTY THOUSAND EVILS,
 MANY OF WHICH ARE INCURABLE.  YET EVEN IN THIS DREADFUL STATE
 MEN STILL STRUT AND POSE ON THE STAGE OF LIFE.
 THEY MAKE LOVE AT THE RISK OF DESTRUCTION,
 INTRIGUE, CARRY ON WAR, AND FORM PROJECTS, JUST AS IF THEY
 WERE TO LIVE IN LUXURY AND HAPPINESS FOR A THOUSAND
 AGES.

                                              -- VOLTAIRE
 Job cpu time:       0 days  0 hours  0 minutes  4.2 seconds.
 Elapsed time:       0 days  0 hours  0 minutes  4.2 seconds.
 File lengths (MBytes):  RWF=     10 Int=      0 D2E=      0 Chk=      3 Scr=      1
 Normal termination of Gaussian 16 at Sat May 21 17:42:15 2022.

Sender: Unischeduler System <lcz@mgt01>
Subject: Job 133544: <#!/bin/bash
#BSUB -J intel
#BSUB -o BH-4.8-G.out
#BSUB -n 8
#BSUB -q cqueue
#BSUB -R span[hosts=1]
export g16root=/apps/software
source /apps/software/g16/bsd/g16.profile
export GAUSS_SCRDIR=/scratch
/apps/software/g16/g16 < BH-4.8-G.inp > BH-4.8-G.out> Done

Job <#!/bin/bash
#BSUB -J intel
#BSUB -o BH-4.8-G.out
#BSUB -n 8
#BSUB -q cqueue
#BSUB -R span[hosts=1]
export g16root=/apps/software
source /apps/software/g16/bsd/g16.profile
export GAUSS_SCRDIR=/scratch
/apps/software/g16/g16 < BH-4.8-G.inp > BH-4.8-G.out> was submitted from host <mgt01> by user <lcz>.
Job was executed on host(s) <8*cnode01>, in queue <cqueue>, as user <lcz>.
</apps/users/lcz> was used as the home directory.
</apps/users/lcz/exe13/RHF> was used as the working directory.
Started at 2022-05-21 17:42:11
Results reported at 2022-05-21 17:42:15

Your job looked like:

------------------------------------------------------------
# User input
#!/bin/bash
#BSUB -J intel
#BSUB -o BH-4.8-G.out
#BSUB -n 8
#BSUB -q cqueue
#BSUB -R span[hosts=1]
export g16root=/apps/software
source /apps/software/g16/bsd/g16.profile
export GAUSS_SCRDIR=/scratch
/apps/software/g16/g16 < BH-4.8-G.inp > BH-4.8-G.out
------------------------------------------------------------

Successfully completed.

Resource usage summary:

    CPU time   :            0.01 sec.
    Max Memory :                 8 MB
    Max Processes  :               2


The output (if any) follows:

