 Entering Gaussian System, Link 0=/apps/software/g16/g16
 Initial command:
 /apps/software/g16/l1.exe "/scratch/Gau-136440.inp" -scrdir="/scratch/"
 Entering Link 1 = /apps/software/g16/l1.exe PID=    136441.
  
 Copyright (c) 1988,1990,1992,1993,1995,1998,2003,2009,2016,
            Gaussian, Inc.  All Rights Reserved.
  
 This is part of the Gaussian(R) 16 program.  It is based on
 the Gaussian(R) 09 system (copyright 2009, Gaussian, Inc.),
 the Gaussian(R) 03 system (copyright 2003, Gaussian, Inc.),
 the Gaussian(R) 98 system (copyright 1998, Gaussian, Inc.),
 the Gaussian(R) 94 system (copyright 1995, Gaussian, Inc.),
 the Gaussian 92(TM) system (copyright 1992, Gaussian, Inc.),
 the Gaussian 90(TM) system (copyright 1990, Gaussian, Inc.),
 the Gaussian 88(TM) system (copyright 1988, Gaussian, Inc.),
 the Gaussian 86(TM) system (copyright 1986, Carnegie Mellon
 University), and the Gaussian 82(TM) system (copyright 1983,
 Carnegie Mellon University). Gaussian is a federally registered
 trademark of Gaussian, Inc.
  
 This software contains proprietary and confidential information,
 including trade secrets, belonging to Gaussian, Inc.
  
 This software is provided under written license and may be
 used, copied, transmitted, or stored only in accord with that
 written license.
  
 The following legend is applicable only to US Government
 contracts under FAR:
  
                    RESTRICTED RIGHTS LEGEND
  
 Use, reproduction and disclosure by the US Government is
 subject to restrictions as set forth in subparagraphs (a)
 and (c) of the Commercial Computer Software - Restricted
 Rights clause in FAR 52.227-19.
  
 Gaussian, Inc.
 340 Quinnipiac St., Bldg. 40, Wallingford CT 06492
  
  
 ---------------------------------------------------------------
 Warning -- This program may not be used in any manner that
 competes with the business of Gaussian, Inc. or will provide
 assistance to any competitor of Gaussian, Inc.  The licensee
 of this program is prohibited from giving any competitor of
 Gaussian, Inc. access to this program.  By using this program,
 the user acknowledges that Gaussian, Inc. is engaged in the
 business of creating and licensing software in the field of
 computational chemistry and represents and warrants to the
 licensee that it is not a competitor of Gaussian, Inc. and that
 it will not use this program in any manner prohibited above.
 ---------------------------------------------------------------
  

 Cite this work as:
 Gaussian 16, Revision A.03,
 M. J. Frisch, G. W. Trucks, H. B. Schlegel, G. E. Scuseria, 
 M. A. Robb, J. R. Cheeseman, G. Scalmani, V. Barone, 
 G. A. Petersson, H. Nakatsuji, X. Li, M. Caricato, A. V. Marenich, 
 J. Bloino, B. G. Janesko, R. Gomperts, B. Mennucci, H. P. Hratchian, 
 J. V. Ortiz, A. F. Izmaylov, J. L. Sonnenberg, D. Williams-Young, 
 F. Ding, F. Lipparini, F. Egidi, J. Goings, B. Peng, A. Petrone, 
 T. Henderson, D. Ranasinghe, V. G. Zakrzewski, J. Gao, N. Rega, 
 G. Zheng, W. Liang, M. Hada, M. Ehara, K. Toyota, R. Fukuda, 
 J. Hasegawa, M. Ishida, T. Nakajima, Y. Honda, O. Kitao, H. Nakai, 
 T. Vreven, K. Throssell, J. A. Montgomery, Jr., J. E. Peralta, 
 F. Ogliaro, M. J. Bearpark, J. J. Heyd, E. N. Brothers, K. N. Kudin, 
 V. N. Staroverov, T. A. Keith, R. Kobayashi, J. Normand, 
 K. Raghavachari, A. P. Rendell, J. C. Burant, S. S. Iyengar, 
 J. Tomasi, M. Cossi, J. M. Millam, M. Klene, C. Adamo, R. Cammi, 
 J. W. Ochterski, R. L. Martin, K. Morokuma, O. Farkas, 
 J. B. Foresman, and D. J. Fox, Gaussian, Inc., Wallingford CT, 2016.
 
 ******************************************
 Gaussian 16:  ES64L-G16RevA.03 25-Dec-2016
                21-May-2022 
 ******************************************
 %chk=BH-4.6-G.chk
 ------------------
 #p RHF/aug-cc-pVQZ
 ------------------
 1/38=1,172=1/1;
 2/12=2,17=6,18=5,40=1/2;
 3/5=16,6=2,7=10,11=1,25=1,30=1,116=1/1,2,3;
 4//1;
 5/5=2,38=5/2;
 6/7=2,8=2,9=2,10=2,28=1/1;
 99/5=1,9=1/99;
 Leave Link    1 at Sat May 21 17:42:07 2022, MaxMem=           0 cpu:               0.0 elap:               0.0
 (Enter /apps/software/g16/l101.exe)
 ----------------------
 BH RHF at 4.6 Angstrom
 ----------------------
 Symbolic Z-matrix:
 Charge =  0 Multiplicity = 1
 B                     0.        0.        0. 
 H                     4.6       0.        0. 
 
 ITRead=  0  0
 MicOpt= -1 -1
 NAtoms=      2 NQM=        2 NQMF=       0 NMMI=      0 NMMIF=      0
                NMic=       0 NMicF=      0.
                    Isotopes and Nuclear Properties:
 (Nuclear quadrupole moments (NQMom) in fm**2, nuclear magnetic moments (NMagM)
  in nuclear magnetons)

  Atom         1           2
 IAtWgt=          11           1
 AtmWgt=  11.0093053   1.0078250
 NucSpn=           3           1
 AtZEff=  -0.0000000  -0.0000000
 NQMom=    4.0590000   0.0000000
 NMagM=    2.6886370   2.7928460
 AtZNuc=   5.0000000   1.0000000
 Leave Link  101 at Sat May 21 17:42:07 2022, MaxMem=   104857600 cpu:               0.1 elap:               0.1
 (Enter /apps/software/g16/l202.exe)
                          Input orientation:                          
 ---------------------------------------------------------------------
 Center     Atomic      Atomic             Coordinates (Angstroms)
 Number     Number       Type             X           Y           Z
 ---------------------------------------------------------------------
      1          5           0        0.000000    0.000000    0.000000
      2          1           0        4.600000    0.000000    0.000000
 ---------------------------------------------------------------------
 Stoichiometry    BH
 Framework group  C*V[C*(HB)]
 Deg. of freedom     1
 Full point group                 C*V     NOp   4
 Largest Abelian subgroup         C2V     NOp   4
 Largest concise Abelian subgroup C1      NOp   1
                         Standard orientation:                         
 ---------------------------------------------------------------------
 Center     Atomic      Atomic             Coordinates (Angstroms)
 Number     Number       Type             X           Y           Z
 ---------------------------------------------------------------------
      1          5           0        0.000000    0.000000    0.766667
      2          1           0        0.000000    0.000000   -3.833333
 ---------------------------------------------------------------------
 Rotational constants (GHZ):           0.0000000          25.8676663          25.8676663
 Leave Link  202 at Sat May 21 17:42:07 2022, MaxMem=   104857600 cpu:               0.0 elap:               0.0
 (Enter /apps/software/g16/l301.exe)
 Standard basis: Aug-CC-pVQZ (5D, 7F)
 Ernie: Thresh=  0.10000D-02 Tol=  0.10000D-05 Strict=F.
 Ernie:  4 primitive shells out of 54 were deleted.
 There are    68 symmetry adapted cartesian basis functions of A1  symmetry.
 There are    18 symmetry adapted cartesian basis functions of A2  symmetry.
 There are    37 symmetry adapted cartesian basis functions of B1  symmetry.
 There are    37 symmetry adapted cartesian basis functions of B2  symmetry.
 There are    50 symmetry adapted basis functions of A1  symmetry.
 There are    16 symmetry adapted basis functions of A2  symmetry.
 There are    30 symmetry adapted basis functions of B1  symmetry.
 There are    30 symmetry adapted basis functions of B2  symmetry.
   126 basis functions,   180 primitive gaussians,   160 cartesian basis functions
     3 alpha electrons        3 beta electrons
       nuclear repulsion energy         0.5751926206 Hartrees.
 IExCor=    0 DFT=F Ex=HF Corr=None ExCW=0 ScaHFX=  1.000000
 ScaDFX=  1.000000  1.000000  1.000000  1.000000 ScalE2=  1.000000  1.000000
 IRadAn=      5 IRanWt=     -1 IRanGd=            0 ICorTp=0 IEmpDi=  4
 NAtoms=    2 NActive=    2 NUniq=    2 SFac= 1.00D+00 NAtFMM=   60 NAOKFM=F Big=F
 Integral buffers will be    131072 words long.
 Raffenetti 1 integral format.
 Two-electron integral symmetry is turned on.
 Leave Link  301 at Sat May 21 17:42:07 2022, MaxMem=   104857600 cpu:               0.1 elap:               0.1
 (Enter /apps/software/g16/l302.exe)
 NPDir=0 NMtPBC=     1 NCelOv=     1 NCel=       1 NClECP=     1 NCelD=      1
         NCelK=      1 NCelE2=     1 NClLst=     1 CellRange=     0.0.
 One-electron integrals computed using PRISM.
 One-electron integral symmetry used in STVInt
 NBasis=   126 RedAO= T EigKep=  1.19D-02  NBF=    50    16    30    30
 NBsUse=   126 1.00D-06 EigRej= -1.00D+00 NBFU=    50    16    30    30
 Leave Link  302 at Sat May 21 17:42:07 2022, MaxMem=   104857600 cpu:               0.1 elap:               0.1
 (Enter /apps/software/g16/l303.exe)
 DipDrv:  MaxL=1.
 Leave Link  303 at Sat May 21 17:42:07 2022, MaxMem=   104857600 cpu:               0.0 elap:               0.0
 (Enter /apps/software/g16/l401.exe)
 ExpMin= 1.88D-02 ExpMax= 2.39D+04 ExpMxC= 2.30D+02 IAcc=3 IRadAn=         5 AccDes= 0.00D+00
 Harris functional with IExCor=  205 and IRadAn=       5 diagonalized for initial guess.
 HarFok:  IExCor=  205 AccDes= 0.00D+00 IRadAn=         5 IDoV= 1 UseB2=F ITyADJ=14
 ICtDFT=  3500011 ScaDFX=  1.000000  1.000000  1.000000  1.000000
 FoFCou: FMM=F IPFlag=           0 FMFlag=      100000 FMFlg1=           0
         NFxFlg=           0 DoJE=T BraDBF=F KetDBF=T FulRan=T
         wScrn=  0.000000 ICntrl=       500 IOpCl=  0 I1Cent=   200000004 NGrid=           0
         NMat0=    1 NMatS0=      1 NMatT0=    0 NMatD0=    1 NMtDS0=    0 NMtDT0=    0
 Petite list used in FoFCou.
 Harris En= -24.9885798187323    
 JPrj=0 DoOrth=F DoCkMO=F.
 Initial guess orbital symmetries:
       Occupied  (SG) (SG) (SG)
       Virtual   (PI) (PI) (SG) (SG) (PI) (PI) (SG) (SG) (PI) (PI)
                 (SG) (DLTA) (DLTA) (PI) (PI) (SG) (PI) (PI) (SG)
                 (SG) (SG) (SG) (PI) (PI) (DLTA) (DLTA) (PI) (PI)
                 (DLTA) (DLTA) (PHI) (PHI) (SG) (DLTA) (DLTA) (PI)
                 (PI) (SG) (PI) (PI) (SG) (PI) (PI) (SG) (SG) (DLTA)
                 (DLTA) (PI) (PI) (SG) (DLTA) (?A) (DLTA) (PHI)
                 (PHI) (?A) (PI) (PI) (SG) (DLTA) (DLTA) (PHI)
                 (PHI) (PI) (PI) (SG) (SG) (PHI) (PHI) (DLTA) (DLTA)
                 (PI) (PI) (SG) (DLTA) (DLTA) (PI) (PI) (SG) (PI)
                 (PI) (SG) (PI) (PI) (SG) (DLTA) (DLTA) (PI) (PI)
                 (SG) (DLTA) (?A) (?B) (?B) (?A) (DLTA) (?B) (?B)
                 (SG) (PHI) (PHI) (DLTA) (DLTA) (PI) (PI) (SG)
                 (PHI) (PHI) (DLTA) (DLTA) (PI) (PI) (SG) (SG)
                 (PI) (PI) (SG) (DLTA) (DLTA) (PI) (PI) (SG) (SG)
 The electronic state of the initial guess is 1-SG.
 Leave Link  401 at Sat May 21 17:42:08 2022, MaxMem=   104857600 cpu:               0.2 elap:               0.2
 (Enter /apps/software/g16/l502.exe)
 Keep R1 ints in memory in symmetry-blocked form, NReq=40143665.
 FoFCou: FMM=F IPFlag=           0 FMFlag=           0 FMFlg1=           0
         NFxFlg=           0 DoJE=F BraDBF=F KetDBF=F FulRan=T
         wScrn=  0.000000 ICntrl=       600 IOpCl=  0 I1Cent=           0 NGrid=           0
         NMat0=    1 NMatS0=   8001 NMatT0=    0 NMatD0=    1 NMtDS0=    0 NMtDT0=    0
 Petite list used in FoFCou.
 Closed shell SCF:
 Using DIIS extrapolation, IDIIS=  1040.
 NGot=   104857600 LenX=    96673173 LenY=    96647132
 Requested convergence on RMS density matrix=1.00D-08 within 128 cycles.
 Requested convergence on MAX density matrix=1.00D-06.
 Requested convergence on             energy=1.00D-06.
 No special actions if energy rises.

 Cycle   1  Pass 1  IDiag  1:
 E= -24.7567866144836    
 DIIS: error= 4.02D-02 at cycle   1 NSaved=   1.
 NSaved= 1 IEnMin= 1 EnMin= -24.7567866144836     IErMin= 1 ErrMin= 4.02D-02
 ErrMax= 4.02D-02  0.00D+00 EMaxC= 1.00D-01 BMatC= 6.05D-02 BMatP= 6.05D-02
 IDIUse=3 WtCom= 5.98D-01 WtEn= 4.02D-01
 Coeff-Com:  0.100D+01
 Coeff-En:   0.100D+01
 Coeff:      0.100D+01
 Gap=     0.000 Goal=   None    Shift=    0.000
 GapD=    0.000 DampG=0.250 DampE=0.500 DampFc=0.2500 IDamp=-1.
 Damping current iteration by 2.50D-01
 RMSDP=4.83D-03 MaxDP=2.20D-01              OVMax= 1.05D-01

 Cycle   2  Pass 1  IDiag  1:
 E= -24.7984945753257     Delta-E=       -0.041707960842 Rises=F Damp=T
 DIIS: error= 2.64D-02 at cycle   2 NSaved=   2.
 NSaved= 2 IEnMin= 2 EnMin= -24.7984945753257     IErMin= 2 ErrMin= 2.64D-02
 ErrMax= 2.64D-02  0.00D+00 EMaxC= 1.00D-01 BMatC= 2.33D-02 BMatP= 6.05D-02
 IDIUse=3 WtCom= 7.36D-01 WtEn= 2.64D-01
 Coeff-Com: -0.116D+01 0.216D+01
 Coeff-En:   0.000D+00 0.100D+01
 Coeff:     -0.852D+00 0.185D+01
 Gap=     0.151 Goal=   None    Shift=    0.000
 RMSDP=1.31D-03 MaxDP=8.45D-02 DE=-4.17D-02 OVMax= 1.72D-01

 Cycle   3  Pass 1  IDiag  1:
 E= -24.7996339812036     Delta-E=       -0.001139405878 Rises=F Damp=F
 DIIS: error= 1.60D-02 at cycle   3 NSaved=   3.
 NSaved= 3 IEnMin= 3 EnMin= -24.7996339812036     IErMin= 3 ErrMin= 1.60D-02
 ErrMax= 1.60D-02  0.00D+00 EMaxC= 1.00D-01 BMatC= 1.28D-02 BMatP= 2.33D-02
 IDIUse=3 WtCom= 8.40D-01 WtEn= 1.60D-01
 Coeff-Com: -0.104D+01 0.135D+01 0.686D+00
 Coeff-En:   0.000D+00 0.473D+00 0.527D+00
 Coeff:     -0.873D+00 0.121D+01 0.660D+00
 Gap=     0.055 Goal=   None    Shift=    0.000
 RMSDP=6.85D-04 MaxDP=3.00D-02 DE=-1.14D-03 OVMax= 7.25D-02

 Cycle   4  Pass 1  IDiag  1:
 E= -24.8243909158977     Delta-E=       -0.024756934694 Rises=F Damp=F
 DIIS: error= 1.15D-02 at cycle   4 NSaved=   4.
 NSaved= 4 IEnMin= 4 EnMin= -24.8243909158977     IErMin= 4 ErrMin= 1.15D-02
 ErrMax= 1.15D-02  0.00D+00 EMaxC= 1.00D-01 BMatC= 5.78D-03 BMatP= 1.28D-02
 IDIUse=3 WtCom= 8.85D-01 WtEn= 1.15D-01
 Coeff-Com: -0.874D+00 0.116D+01 0.265D+00 0.453D+00
 Coeff-En:   0.000D+00 0.000D+00 0.000D+00 0.100D+01
 Coeff:     -0.773D+00 0.102D+01 0.234D+00 0.516D+00
 Gap=     0.050 Goal=   None    Shift=    0.000
 RMSDP=2.81D-04 MaxDP=1.09D-02 DE=-2.48D-02 OVMax= 3.84D-02

 Cycle   5  Pass 1  IDiag  1:
 E= -24.8328155822103     Delta-E=       -0.008424666313 Rises=F Damp=F
 DIIS: error= 1.11D-02 at cycle   5 NSaved=   5.
 NSaved= 5 IEnMin= 5 EnMin= -24.8328155822103     IErMin= 5 ErrMin= 1.11D-02
 ErrMax= 1.11D-02  0.00D+00 EMaxC= 1.00D-01 BMatC= 4.12D-03 BMatP= 5.78D-03
 IDIUse=3 WtCom= 8.89D-01 WtEn= 1.11D-01
 Coeff-Com: -0.894D+00 0.116D+01 0.817D+00-0.155D+01 0.146D+01
 Coeff-En:   0.000D+00 0.000D+00 0.000D+00 0.000D+00 0.100D+01
 Coeff:     -0.794D+00 0.103D+01 0.726D+00-0.138D+01 0.141D+01
 Gap=     0.056 Goal=   None    Shift=    0.000
 RMSDP=9.72D-05 MaxDP=5.51D-03 DE=-8.42D-03 OVMax= 1.82D-02

 Cycle   6  Pass 1  IDiag  1:
 E= -24.8343541863874     Delta-E=       -0.001538604177 Rises=F Damp=F
 DIIS: error= 1.18D-02 at cycle   6 NSaved=   6.
 NSaved= 6 IEnMin= 6 EnMin= -24.8343541863874     IErMin= 5 ErrMin= 1.11D-02
 ErrMax= 1.18D-02  0.00D+00 EMaxC= 1.00D-01 BMatC= 4.27D-03 BMatP= 4.12D-03
 IDIUse=3 WtCom= 8.89D-01 WtEn= 1.11D-01
 Large coefficients: NSaved=  6 BigCof=   12.73 CofMax=   10.00 Det=-5.10D-07
 Inversion failed.  Reducing to  5 matrices.
 Large coefficients: NSaved=  5 BigCof=   28.50 CofMax=   10.00 Det=-7.82D-07
 Inversion failed.  Reducing to  4 matrices.
 Large coefficients: NSaved=  4 BigCof=   25.47 CofMax=   10.00 Det=-1.37D-06
 Inversion failed.  Reducing to  3 matrices.
 Large coefficients: NSaved=  3 BigCof=   13.69 CofMax=   10.00 Det=-8.49D-06
 Inversion failed.  Reducing to  2 matrices.
 Coeff-Com:  0.884D+01-0.784D+01
 Coeff-En:   0.000D+00 0.100D+01
 Coeff:      0.786D+01-0.686D+01
 Gap=     0.013 Goal=   None    Shift=    0.000
 RMSDP=4.50D-03 MaxDP=2.18D-01 DE=-1.54D-03 OVMax= 9.27D-02

 Cycle   7  Pass 1  IDiag  1:
 E= -24.4649648873965     Delta-E=        0.369389298991 Rises=F Damp=F
 DIIS: error= 4.62D-02 at cycle   7 NSaved=   3.
 NSaved= 3 IEnMin= 2 EnMin= -24.8343541863874     IErMin= 1 ErrMin= 1.11D-02
 ErrMax= 4.62D-02  0.00D+00 EMaxC= 1.00D-01 BMatC= 4.09D-02 BMatP= 4.12D-03
 IDIUse=2 WtCom= 0.00D+00 WtEn= 1.00D+00
 Coeff-En:   0.000D+00 0.906D+00 0.944D-01
 Coeff:      0.000D+00 0.906D+00 0.944D-01
 Gap=     0.031 Goal=   None    Shift=    0.000
 RMSDP=4.37D-03 MaxDP=2.18D-01 DE= 3.69D-01 OVMax= 4.58D-02

 Cycle   8  Pass 1  IDiag  1:
 E= -24.8804122014291     Delta-E=       -0.415447314033 Rises=F Damp=F
 DIIS: error= 3.43D-03 at cycle   8 NSaved=   4.
 NSaved= 4 IEnMin= 4 EnMin= -24.8804122014291     IErMin= 4 ErrMin= 3.43D-03
 ErrMax= 3.43D-03  0.00D+00 EMaxC= 1.00D-01 BMatC= 4.04D-04 BMatP= 4.12D-03
 IDIUse=3 WtCom= 9.66D-01 WtEn= 3.43D-02
 Coeff-Com:  0.325D+01-0.306D+01 0.240D-01 0.792D+00
 Coeff-En:   0.000D+00 0.000D+00 0.000D+00 0.100D+01
 Coeff:      0.313D+01-0.296D+01 0.231D-01 0.800D+00
 Gap=     0.091 Goal=   None    Shift=    0.000
 RMSDP=3.76D-04 MaxDP=1.58D-02 DE=-4.15D-01 OVMax= 8.11D-02

 Cycle   9  Pass 1  IDiag  1:
 E= -24.8830991792755     Delta-E=       -0.002686977846 Rises=F Damp=F
 DIIS: error= 2.99D-03 at cycle   9 NSaved=   5.
 NSaved= 5 IEnMin= 5 EnMin= -24.8830991792755     IErMin= 5 ErrMin= 2.99D-03
 ErrMax= 2.99D-03  0.00D+00 EMaxC= 1.00D-01 BMatC= 3.48D-04 BMatP= 4.04D-04
 IDIUse=3 WtCom= 9.70D-01 WtEn= 2.99D-02
 Coeff-Com: -0.221D+01 0.245D+01-0.797D-02-0.522D+00 0.130D+01
 Coeff-En:   0.000D+00 0.000D+00 0.000D+00 0.000D+00 0.100D+01
 Coeff:     -0.214D+01 0.237D+01-0.774D-02-0.506D+00 0.129D+01
 Gap=     0.129 Goal=   None    Shift=    0.000
 RMSDP=3.30D-04 MaxDP=1.22D-02 DE=-2.69D-03 OVMax= 3.92D-02

 Cycle  10  Pass 1  IDiag  1:
 E= -24.8837268238314     Delta-E=       -0.000627644556 Rises=F Damp=F
 DIIS: error= 2.61D-03 at cycle  10 NSaved=   6.
 NSaved= 6 IEnMin= 6 EnMin= -24.8837268238314     IErMin= 6 ErrMin= 2.61D-03
 ErrMax= 2.61D-03  0.00D+00 EMaxC= 1.00D-01 BMatC= 1.60D-04 BMatP= 3.48D-04
 IDIUse=3 WtCom= 9.74D-01 WtEn= 2.61D-02
 Coeff-Com: -0.461D+00 0.477D+00 0.247D-02 0.545D+00-0.117D+01 0.161D+01
 Coeff-En:   0.000D+00 0.000D+00 0.000D+00 0.000D+00 0.000D+00 0.100D+01
 Coeff:     -0.449D+00 0.465D+00 0.241D-02 0.531D+00-0.114D+01 0.159D+01
 Gap=     0.137 Goal=   None    Shift=    0.000
 RMSDP=1.98D-04 MaxDP=6.69D-03 DE=-6.28D-04 OVMax= 3.12D-02

 Cycle  11  Pass 1  IDiag  1:
 E= -24.8842531171816     Delta-E=       -0.000526293350 Rises=F Damp=F
 DIIS: error= 5.75D-04 at cycle  11 NSaved=   7.
 NSaved= 7 IEnMin= 7 EnMin= -24.8842531171816     IErMin= 7 ErrMin= 5.75D-04
 ErrMax= 5.75D-04  0.00D+00 EMaxC= 1.00D-01 BMatC= 5.63D-06 BMatP= 1.60D-04
 IDIUse=3 WtCom= 9.94D-01 WtEn= 5.75D-03
 Coeff-Com:  0.407D+00-0.420D+00 0.199D-03-0.124D+00 0.203D+00-0.194D+00
 Coeff-Com:  0.113D+01
 Coeff-En:   0.000D+00 0.000D+00 0.000D+00 0.000D+00 0.000D+00 0.000D+00
 Coeff-En:   0.100D+01
 Coeff:      0.405D+00-0.418D+00 0.198D-03-0.123D+00 0.202D+00-0.193D+00
 Coeff:      0.113D+01
 Gap=     0.136 Goal=   None    Shift=    0.000
 RMSDP=4.24D-05 MaxDP=1.46D-03 DE=-5.26D-04 OVMax= 7.61D-03

 Cycle  12  Pass 1  IDiag  1:
 E= -24.8842819049357     Delta-E=       -0.000028787754 Rises=F Damp=F
 DIIS: error= 5.74D-05 at cycle  12 NSaved=   8.
 NSaved= 8 IEnMin= 8 EnMin= -24.8842819049357     IErMin= 8 ErrMin= 5.74D-05
 ErrMax= 5.74D-05  0.00D+00 EMaxC= 1.00D-01 BMatC= 1.46D-07 BMatP= 5.63D-06
 IDIUse=1 WtCom= 1.00D+00 WtEn= 0.00D+00
 Coeff-Com: -0.226D-01 0.227D-01-0.141D-03 0.786D-02-0.242D-01-0.166D-01
 Coeff-Com: -0.131D+00 0.116D+01
 Coeff:     -0.226D-01 0.227D-01-0.141D-03 0.786D-02-0.242D-01-0.166D-01
 Coeff:     -0.131D+00 0.116D+01
 Gap=     0.137 Goal=   None    Shift=    0.000
 RMSDP=9.60D-06 MaxDP=3.31D-04 DE=-2.88D-05 OVMax= 7.88D-04

 Cycle  13  Pass 1  IDiag  1:
 E= -24.8842823860130     Delta-E=       -0.000000481077 Rises=F Damp=F
 DIIS: error= 1.67D-05 at cycle  13 NSaved=   9.
 NSaved= 9 IEnMin= 9 EnMin= -24.8842823860130     IErMin= 9 ErrMin= 1.67D-05
 ErrMax= 1.67D-05  0.00D+00 EMaxC= 1.00D-01 BMatC= 4.19D-09 BMatP= 1.46D-07
 IDIUse=1 WtCom= 1.00D+00 WtEn= 0.00D+00
 Coeff-Com: -0.788D-02 0.821D-02 0.118D-04-0.570D-03 0.790D-02-0.952D-03
 Coeff-Com:  0.192D-01-0.304D+00 0.128D+01
 Coeff:     -0.788D-02 0.821D-02 0.118D-04-0.570D-03 0.790D-02-0.952D-03
 Coeff:      0.192D-01-0.304D+00 0.128D+01
 Gap=     0.137 Goal=   None    Shift=    0.000
 RMSDP=1.66D-06 MaxDP=6.15D-05 DE=-4.81D-07 OVMax= 2.86D-04

 Cycle  14  Pass 1  IDiag  1:
 E= -24.8842824146058     Delta-E=       -0.000000028593 Rises=F Damp=F
 DIIS: error= 3.73D-06 at cycle  14 NSaved=  10.
 NSaved=10 IEnMin=10 EnMin= -24.8842824146058     IErMin=10 ErrMin= 3.73D-06
 ErrMax= 3.73D-06  0.00D+00 EMaxC= 1.00D-01 BMatC= 4.10D-10 BMatP= 4.19D-09
 IDIUse=1 WtCom= 1.00D+00 WtEn= 0.00D+00
 Coeff-Com:  0.138D-02-0.142D-02 0.229D-05-0.413D-04-0.466D-03 0.136D-02
 Coeff-Com: -0.346D-02 0.269D-01-0.176D+00 0.115D+01
 Coeff:      0.138D-02-0.142D-02 0.229D-05-0.413D-04-0.466D-03 0.136D-02
 Coeff:     -0.346D-02 0.269D-01-0.176D+00 0.115D+01
 Gap=     0.137 Goal=   None    Shift=    0.000
 RMSDP=4.06D-07 MaxDP=1.32D-05 DE=-2.86D-08 OVMax= 4.04D-05

 Cycle  15  Pass 1  IDiag  1:
 E= -24.8842824160423     Delta-E=       -0.000000001436 Rises=F Damp=F
 DIIS: error= 2.15D-07 at cycle  15 NSaved=  11.
 NSaved=11 IEnMin=11 EnMin= -24.8842824160423     IErMin=11 ErrMin= 2.15D-07
 ErrMax= 2.15D-07  0.00D+00 EMaxC= 1.00D-01 BMatC= 2.15D-12 BMatP= 4.10D-10
 IDIUse=1 WtCom= 1.00D+00 WtEn= 0.00D+00
 Coeff-Com: -0.245D-04 0.309D-04-0.514D-06-0.188D-04-0.307D-04-0.272D-03
 Coeff-Com:  0.105D-02-0.571D-02 0.224D-01-0.328D+00 0.131D+01
 Coeff:     -0.245D-04 0.309D-04-0.514D-06-0.188D-04-0.307D-04-0.272D-03
 Coeff:      0.105D-02-0.571D-02 0.224D-01-0.328D+00 0.131D+01
 Gap=     0.137 Goal=   None    Shift=    0.000
 RMSDP=6.29D-08 MaxDP=2.58D-06 DE=-1.44D-09 OVMax= 6.77D-06

 Cycle  16  Pass 1  IDiag  1:
 E= -24.8842824160570     Delta-E=       -0.000000000015 Rises=F Damp=F
 DIIS: error= 1.51D-07 at cycle  16 NSaved=  12.
 NSaved=12 IEnMin=12 EnMin= -24.8842824160570     IErMin=12 ErrMin= 1.51D-07
 ErrMax= 1.51D-07  0.00D+00 EMaxC= 1.00D-01 BMatC= 4.97D-13 BMatP= 2.15D-12
 IDIUse=1 WtCom= 1.00D+00 WtEn= 0.00D+00
 Coeff-Com:  0.224D-04-0.208D-04-0.227D-08-0.156D-04 0.570D-04-0.462D-04
 Coeff-Com: -0.574D-04 0.168D-02-0.417D-02 0.696D-01-0.409D+00 0.134D+01
 Coeff:      0.224D-04-0.208D-04-0.227D-08-0.156D-04 0.570D-04-0.462D-04
 Coeff:     -0.574D-04 0.168D-02-0.417D-02 0.696D-01-0.409D+00 0.134D+01
 Gap=     0.137 Goal=   None    Shift=    0.000
 RMSDP=8.88D-09 MaxDP=2.97D-07 DE=-1.47D-11 OVMax= 1.37D-06

 SCF Done:  E(RHF) =  -24.8842824161     A.U. after   16 cycles
            NFock= 16  Conv=0.89D-08     -V/T= 2.0048
 KE= 2.476419984993D+01 PE=-5.819081977565D+01 EE= 7.967144889100D+00
 Leave Link  502 at Sat May 21 17:42:11 2022, MaxMem=   104857600 cpu:               3.5 elap:               3.5
 (Enter /apps/software/g16/l601.exe)
 Copying SCF densities to generalized density rwf, IOpCl= 0 IROHF=0.

 **********************************************************************

            Population analysis using the SCF density.

 **********************************************************************

 Orbital symmetries:
       Occupied  (SG) (SG) (SG)
       Virtual   (SG) (PI) (PI) (SG) (PI) (PI) (SG) (SG) (DLTA)
                 (DLTA) (PI) (PI) (SG) (SG) (PI) (PI) (PI) (PI)
                 (SG) (SG) (PHI) (PHI) (DLTA) (DLTA) (SG) (DLTA)
                 (DLTA) (PI) (PI) (PI) (PI) (SG) (SG) (DLTA) (DLTA)
                 (PI) (PI) (SG) (PI) (PI) (SG) (PI) (PI) (SG) (SG)
                 (?A) (?A) (DLTA) (DLTA) (PHI) (PHI) (DLTA) (DLTA)
                 (PI) (PI) (PI) (PI) (SG) (SG) (PHI) (PHI) (DLTA)
                 (DLTA) (PI) (PI) (SG) (PHI) (PHI) (DLTA) (DLTA)
                 (PI) (PI) (SG) (SG) (DLTA) (DLTA) (PI) (PI) (SG)
                 (PI) (PI) (SG) (PI) (PI) (SG) (?A) (?A) (DLTA)
                 (DLTA) (PHI) (PHI) (DLTA) (DLTA) (PI) (PI) (PI)
                 (PI) (SG) (SG) (PHI) (PHI) (DLTA) (DLTA) (PI)
                 (PI) (SG) (PHI) (PHI) (DLTA) (DLTA) (PI) (PI)
                 (SG) (SG) (PI) (PI) (SG) (DLTA) (DLTA) (PI) (PI)
                 (SG) (SG)
 The electronic state is 1-SG.
 Alpha  occ. eigenvalues --   -7.89482  -0.62654  -0.22480
 Alpha virt. eigenvalues --   -0.08773  -0.05161  -0.05161   0.02108   0.04054
 Alpha virt. eigenvalues --    0.04054   0.05868   0.10043   0.11592   0.11592
 Alpha virt. eigenvalues --    0.12380   0.12380   0.14899   0.23209   0.24100
 Alpha virt. eigenvalues --    0.24100   0.24698   0.24698   0.28716   0.32209
 Alpha virt. eigenvalues --    0.41200   0.41200   0.41944   0.41944   0.42879
 Alpha virt. eigenvalues --    0.42965   0.42965   0.43172   0.43172   0.44152
 Alpha virt. eigenvalues --    0.44152   0.46447   0.53905   0.69338   0.69338
 Alpha virt. eigenvalues --    0.71611   0.71611   0.75333   0.86830   0.86830
 Alpha virt. eigenvalues --    0.92450   0.93718   0.93718   1.00248   1.28485
 Alpha virt. eigenvalues --    1.29050   1.29050   1.29705   1.29705   1.29923
 Alpha virt. eigenvalues --    1.29923   1.30597   1.30597   1.30968   1.30968
 Alpha virt. eigenvalues --    1.31288   1.31288   1.32156   1.33166   1.34335
 Alpha virt. eigenvalues --    1.34335   1.35395   1.35395   1.36912   1.36912
 Alpha virt. eigenvalues --    1.42052   1.65064   1.65064   1.65155   1.65155
 Alpha virt. eigenvalues --    1.66045   1.66045   1.67389   1.76367   2.56016
 Alpha virt. eigenvalues --    2.56016   2.57311   2.57311   2.60396   2.68362
 Alpha virt. eigenvalues --    2.68362   2.75276   3.57587   3.57587   3.61240
 Alpha virt. eigenvalues --    3.79609   3.79609   3.80418   3.80418   3.80651
 Alpha virt. eigenvalues --    3.80651   3.81417   3.81417   3.81808   3.81808
 Alpha virt. eigenvalues --    3.81972   3.81972   3.82754   3.83365   3.94619
 Alpha virt. eigenvalues --    3.94619   3.95781   3.95781   3.97111   3.97111
 Alpha virt. eigenvalues --    4.00680   6.65897   6.65897   6.65946   6.65946
 Alpha virt. eigenvalues --    6.66163   6.66163   6.66636   7.53303   8.04689
 Alpha virt. eigenvalues --    8.04689   8.08956   8.49542   8.49542   8.50373
 Alpha virt. eigenvalues --    8.50373   8.53504  12.86484
          Condensed to atoms (all electrons):
               1          2
     1  B    4.507216   0.089723
     2  H    0.089723   1.313339
 Mulliken charges:
               1
     1  B    0.403062
     2  H   -0.403062
 Sum of Mulliken charges =  -0.00000
 Mulliken charges with hydrogens summed into heavy atoms:
               1
     1  B   -0.000000
 Electronic spatial extent (au):  <R**2>=            103.7899
 Charge=             -0.0000 electrons
 Dipole moment (field-independent basis, Debye):
    X=              0.0000    Y=              0.0000    Z=              9.4375  Tot=              9.4375
 Quadrupole moment (field-independent basis, Debye-Ang):
   XX=             -9.2680   YY=             -9.2680   ZZ=            -36.3685
   XY=              0.0000   XZ=              0.0000   YZ=              0.0000
 Traceless Quadrupole moment (field-independent basis, Debye-Ang):
   XX=              9.0335   YY=              9.0335   ZZ=            -18.0670
   XY=              0.0000   XZ=              0.0000   YZ=              0.0000
 Octapole moment (field-independent basis, Debye-Ang**2):
  XXX=              0.0000  YYY=              0.0000  ZZZ=            120.1372  XYY=              0.0000
  XXY=              0.0000  XXZ=             11.0890  XZZ=              0.0000  YZZ=              0.0000
  YYZ=             11.0890  XYZ=              0.0000
 Hexadecapole moment (field-independent basis, Debye-Ang**3):
 XXXX=            -21.6319 YYYY=            -21.6319 ZZZZ=           -692.5994 XXXY=              0.0000
 XXXZ=              0.0000 YYYX=              0.0000 YYYZ=              0.0000 ZZZX=              0.0000
 ZZZY=              0.0000 XXYY=             -7.2106 XXZZ=            -64.2485 YYZZ=            -64.2485
 XXYZ=              0.0000 YYXZ=              0.0000 ZZXY=              0.0000
 N-N= 5.751926205652D-01 E-N=-5.819081680338D+01  KE= 2.476419984993D+01
 Symmetry A1   KE= 2.476419984993D+01
 Symmetry A2   KE= 1.996447187384D-49
 Symmetry B1   KE= 0.000000000000D+00
 Symmetry B2   KE= 0.000000000000D+00
 No NMR shielding tensors so no spin-rotation constants.
 Leave Link  601 at Sat May 21 17:42:11 2022, MaxMem=   104857600 cpu:               0.1 elap:               0.1
 (Enter /apps/software/g16/l9999.exe)
 1\1\GINC-CNODE01\SP\RHF\Aug-CC-pVQZ\B1H1\LCZ\21-May-2022\0\\#p RHF/aug
 -cc-pVQZ\\BH RHF at 4.6 Angstrom\\0,1\B,0,0.,0.,0.\H,0,4.6,0.,0.\\Vers
 ion=ES64L-G16RevA.03\State=1-SG\HF=-24.8842824\RMSD=8.876e-09\Dipole=-
 3.7130091,0.,0.\Quadrupole=-13.4323657,6.7161829,6.7161828,0.,0.,0.\PG
 =C*V [C*(H1B1)]\\@


 CONFIDENCE IS WHAT YOU FEEL BEFORE YOU FULLY
 COMPREHEND THE SITUATION.
 Job cpu time:       0 days  0 hours  0 minutes  4.2 seconds.
 Elapsed time:       0 days  0 hours  0 minutes  4.2 seconds.
 File lengths (MBytes):  RWF=     10 Int=      0 D2E=      0 Chk=      3 Scr=      1
 Normal termination of Gaussian 16 at Sat May 21 17:42:11 2022.

Sender: Unischeduler System <lcz@mgt01>
Subject: Job 133543: <#!/bin/bash
#BSUB -J intel
#BSUB -o BH-4.6-G.out
#BSUB -n 8
#BSUB -q cqueue
#BSUB -R span[hosts=1]
export g16root=/apps/software
source /apps/software/g16/bsd/g16.profile
export GAUSS_SCRDIR=/scratch
/apps/software/g16/g16 < BH-4.6-G.inp > BH-4.6-G.out> Done

Job <#!/bin/bash
#BSUB -J intel
#BSUB -o BH-4.6-G.out
#BSUB -n 8
#BSUB -q cqueue
#BSUB -R span[hosts=1]
export g16root=/apps/software
source /apps/software/g16/bsd/g16.profile
export GAUSS_SCRDIR=/scratch
/apps/software/g16/g16 < BH-4.6-G.inp > BH-4.6-G.out> was submitted from host <mgt01> by user <lcz>.
Job was executed on host(s) <8*cnode01>, in queue <cqueue>, as user <lcz>.
</apps/users/lcz> was used as the home directory.
</apps/users/lcz/exe13/RHF> was used as the working directory.
Started at 2022-05-21 17:42:07
Results reported at 2022-05-21 17:42:11

Your job looked like:

------------------------------------------------------------
# User input
#!/bin/bash
#BSUB -J intel
#BSUB -o BH-4.6-G.out
#BSUB -n 8
#BSUB -q cqueue
#BSUB -R span[hosts=1]
export g16root=/apps/software
source /apps/software/g16/bsd/g16.profile
export GAUSS_SCRDIR=/scratch
/apps/software/g16/g16 < BH-4.6-G.inp > BH-4.6-G.out
------------------------------------------------------------

Successfully completed.

Resource usage summary:

    CPU time   :            0.82 sec.
    Max Memory :               447 MB
    Max Processes  :               5


The output (if any) follows:

