
                                        *****************
                                        * O   R   C   A *
                                        *****************

                                            #,                                       
                                            ###                                      
                                            ####                                     
                                            #####                                    
                                            ######                                   
                                           ########,                                 
                                     ,,################,,,,,                         
                               ,,#################################,,                 
                          ,,##########################################,,             
                       ,#########################################, ''#####,          
                    ,#############################################,,   '####,        
                  ,##################################################,,,,####,       
                ,###########''''           ''''###############################       
              ,#####''   ,,,,##########,,,,          '''####'''          '####       
            ,##' ,,,,###########################,,,                        '##       
           ' ,,###''''                  '''############,,,                           
         ,,##''                                '''############,,,,        ,,,,,,###''
      ,#''                                            '''#######################'''  
     '                                                          ''''####''''         
             ,#######,   #######,   ,#######,      ##                                
            ,#'     '#,  ##    ##  ,#'     '#,    #''#        ######   ,####,        
            ##       ##  ##   ,#'  ##            #'  '#       #        #'  '#        
            ##       ##  #######   ##           ,######,      #####,   #    #        
            '#,     ,#'  ##    ##  '#,     ,#' ,#      #,         ##   #,  ,#        
             '#######'   ##     ##  '#######'  #'      '#     #####' # '####'        



                  #######################################################
                  #                        -***-                        #
                  #          Department of theory and spectroscopy      #
                  #    Directorship and core code : Frank Neese         #
                  #        Max Planck Institute fuer Kohlenforschung    #
                  #                Kaiser Wilhelm Platz 1               #
                  #                 D-45470 Muelheim/Ruhr               #
                  #                      Germany                        #
                  #                                                     #
                  #                  All rights reserved                #
                  #                        -***-                        #
                  #######################################################


                         Program Version 5.0.0 -  RELEASE  -
                                (SVN: $Rev: 19529$)
                ($Date: 2021-06-28 11:36:33 +0200 (Mo, 28 Jun 2021) $)


 With contributions from (in alphabetic order):
   Daniel Aravena         : Magnetic Suceptibility
   Michael Atanasov       : Ab Initio Ligand Field Theory (pilot matlab implementation)
   Alexander A. Auer      : GIAO ZORA, VPT2 properties, NMR spectrum
   Ute Becker             : Parallelization
   Giovanni Bistoni       : ED, misc. LED, open-shell LED, HFLD
   Martin Brehm           : Molecular dynamics
   Dmytro Bykov           : SCF Hessian
   Vijay G. Chilkuri      : MRCI spin determinant printing, contributions to CSF-ICE
   Dipayan Datta          : RHF DLPNO-CCSD density
   Achintya Kumar Dutta   : EOM-CC, STEOM-CC
   Dmitry Ganyushin       : Spin-Orbit,Spin-Spin,Magnetic field MRCI
   Miquel Garcia          : C-PCM Hessian, Gaussian charge scheme
   Yang Guo               : DLPNO-NEVPT2, F12-NEVPT2, CIM, IAO-localization
   Andreas Hansen         : Spin unrestricted coupled pair/coupled cluster methods
   Benjamin Helmich-Paris : MC-RPA, TRAH-SCF, COSX integrals
   Lee Huntington         : MR-EOM, pCC
   Robert Izsak           : Overlap fitted RIJCOSX, COSX-SCS-MP3, EOM
   Marcus Kettner         : VPT2
   Christian Kollmar      : KDIIS, OOCD, Brueckner-CCSD(T), CCSD density, CASPT2, CASPT2-K
   Simone Kossmann        : Meta GGA functionals, TD-DFT gradient, OOMP2, MP2 Hessian
   Martin Krupicka        : Initial AUTO-CI
   Lucas Lang             : DCDCAS
   Marvin Lechner         : AUTO-CI (C++ implementation), FIC-MRCC
   Dagmar Lenk            : GEPOL surface, SMD
   Dimitrios Liakos       : Extrapolation schemes; Compound Job, initial MDCI parallelization
   Dimitrios Manganas     : Further ROCIS development; embedding schemes
   Dimitrios Pantazis     : SARC Basis sets
   Anastasios Papadopoulos: AUTO-CI, single reference methods and gradients
   Taras Petrenko         : DFT Hessian,TD-DFT gradient, ASA, ECA, R-Raman, ABS, FL, XAS/XES, NRVS
   Peter Pinski           : DLPNO-MP2, DLPNO-MP2 Gradient
   Christoph Reimann      : Effective Core Potentials
   Marius Retegan         : Local ZFS, SOC
   Christoph Riplinger    : Optimizer, TS searches, QM/MM, DLPNO-CCSD(T), (RO)-DLPNO pert. Triples
   Tobias Risthaus        : Range-separated hybrids, TD-DFT gradient, RPA, STAB
   Michael Roemelt        : Original ROCIS implementation
   Masaaki Saitow         : Open-shell DLPNO-CCSD energy and density
   Barbara Sandhoefer     : DKH picture change effects
   Avijit Sen             : IP-ROCIS
   Kantharuban Sivalingam : CASSCF convergence, NEVPT2, FIC-MRCI
   Bernardo de Souza      : ESD, SOC TD-DFT
   Georgi Stoychev        : AutoAux, RI-MP2 NMR
   Willem Van den Heuvel  : Paramagnetic NMR
   Boris Wezisla          : Elementary symmetry handling
   Frank Wennmohs         : Technical directorship


 We gratefully acknowledge several colleagues who have allowed us to
 interface, adapt or use parts of their codes:
   Stefan Grimme, W. Hujo, H. Kruse, P. Pracht,  : VdW corrections, initial TS optimization,
                  C. Bannwarth, S. Ehlert          DFT functionals, gCP, sTDA/sTD-DF
   Ed Valeev, F. Pavosevic, A. Kumar             : LibInt (2-el integral package), F12 methods
   Garnet Chan, S. Sharma, J. Yang, R. Olivares  : DMRG
   Ulf Ekstrom                                   : XCFun DFT Library
   Mihaly Kallay                                 : mrcc  (arbitrary order and MRCC methods)
   Jiri Pittner, Ondrej Demel                    : Mk-CCSD
   Frank Weinhold                                : gennbo (NPA and NBO analysis)
   Christopher J. Cramer and Donald G. Truhlar   : smd solvation model
   Lars Goerigk                                  : TD-DFT with DH, B97 family of functionals
   V. Asgeirsson, H. Jonsson                     : NEB implementation
   FAccTs GmbH                                   : IRC, NEB, NEB-TS, DLPNO-Multilevel, CI-OPT
                                                   MM, QMMM, 2- and 3-layer-ONIOM, Crystal-QMMM,
                                                   LR-CPCM, SF, NACMEs, symmetry and pop. for TD-DFT,
                                                   nearIR, NL-DFT gradient (VV10), updates on ESD,
                                                   ML-optimized integration grids
   S Lehtola, MJT Oliveira, MAL Marques          : LibXC Library
   Liviu Ungur et al                             : ANISO software


 Your calculation uses the libint2 library for the computation of 2-el integrals
 For citations please refer to: http://libint.valeyev.net

 Your ORCA version has been built with support for libXC version: 5.1.0
 For citations please refer to: https://tddft.org/programs/libxc/

 This ORCA versions uses:
   CBLAS   interface :  Fast vector & matrix operations
   LAPACKE interface :  Fast linear algebra routines
   SCALAPACK package :  Parallel linear algebra routines
   Shared memory     :  Shared parallel matrices
   BLAS/LAPACK       :  OpenBLAS 0.3.15  USE64BITINT DYNAMIC_ARCH NO_AFFINITY SkylakeX SINGLE_THREADED
        Core in use  :  SkylakeX
   Copyright (c) 2011-2014, The OpenBLAS Project


================================================================================

----- Orbital basis set information -----
Your calculation utilizes the basis: aug-cc-pVQZ 
    H, B-Ne : Obtained from the ccRepo (grant-hill.group.shef.ac.uk/ccrepo) Feb. 2017
              R. A. Kendall, T. H. Dunning, Jr., R. J. Harrison, J. Chem. Phys. 96, 6796 (1992)
         He : Obtained from the ccRepo (grant-hill.group.shef.ac.uk/ccrepo) Feb. 2017
              D. E. Woon, T. H. Dunning, Jr., J. Chem. Phys. 100, 2975 (1994)
  Li-Be, Na : Obtained from the ccRepo (grant-hill.group.shef.ac.uk/ccrepo) Feb. 2017
              B. P. Prascher, D. E. Woon, K. A. Peterson, T. H. Dunning, Jr., A. K. Wilson, Theor. Chem. Acc. 128, 69 (2011)
         Mg : Obtained from the Peterson Research Group Website (tyr0.chem.wsu.edu/~kipeters) Feb. 2017
              B. P. Prascher, D. E. Woon, K. A. Peterson, T. H. Dunning, Jr., A. K. Wilson, Theor. Chem. Acc. 128, 69 (2011)
      Al-Ar : Obtained from the ccRepo (grant-hill.group.shef.ac.uk/ccrepo) Feb. 2017
              D. E. Woon, T. H. Dunning, Jr., J. Chem. Phys. 98, 1358 (1993)
      Sc-Zn : Obtained from the ccRepo (grant-hill.group.shef.ac.uk/ccrepo) Feb. 2017
              N. B. Balabanov, K. A. Peterson, J. Chem. Phys. 123, 064107 (2005)
              N. B. Balabanov, K. A. Peterson, J. Chem. Phys. 125, 074110 (2006)
      Ga-Kr : Obtained from the ccRepo (grant-hill.group.shef.ac.uk/ccrepo) Feb. 2017
              A. K. Wilson, D. E. Woon, K. A. Peterson, T. H. Dunning, Jr., J. Chem. Phys. 110, 7667 (1999)

================================================================================
                                        WARNINGS
                       Please study these warnings very carefully!
================================================================================


INFO   : the flag for use of the SHARK integral package has been found!

================================================================================
                                       INPUT FILE
================================================================================
NAME = /scratch/BH-4.4-O_461/BH-4.4-O.inp
|  1> ! RHF aug-cc-pVQZ pal8 VeryTightSCF UseSym
|  2> 
|  3> *xyz 0 1
|  4>  B	0.0	0.0	0.0
|  5>  H	4.4	0.0	0.0
|  6> **                         ****END OF INPUT****
================================================================================

------------------------------------------------------------------------------
                            SYMMETRY HANDLING SETUP
------------------------------------------------------------------------------

------------------
SYMMETRY DETECTION
------------------
The point group will now be determined using a tolerance of 1.0000e-04.
Splitting atom subsets according to nuclear charge, mass and basis set.
Splitting atom subsets according to distance from the molecule's center.
Identifying relative distance patterns of the atoms.
Splitting atom subsets according to atoms' relative distance patterns.
Bring atoms of each subset into input order.
The molecule is linear.
There is at least one atom subset not centered around the molecule's center.
The molecule does not have a center of inversion.
No further test is needed for point group Cinfv.
This point group has been found:    Cinfv
Largest non-degenerate subgroup:    C2v


Mass-centered symmetry-perfected Cartesians (point groups Cinfv and C2v):

Atom          Symmetry-perfected Cartesians (x, y, z; au)
  0       0.000000000000    0.000000000000   -0.709198963375
  1       0.000000000000    0.000000000000    7.605596025878


-----------------------------------------------
SYMMETRY-PERFECTED CARTESIAN COORDINATES (A.U.)
-----------------------------------------------
Warning (ORCA_SYM): Coordinates were not cleaned so far!

------------------
SYMMETRY REDUCTION
------------------
ORCA supports only abelian point groups.
It is now checked, if the determined point group is supported:
Point Group ( C2v   ) is          ... supported

(Re)building abelian point group:
Creating Character Table          ... done
Making direct product table       ... done
Constructing symmetry operations  ... done
Creating atom transfer table      ... done
Creating asymmetric unit          ... done

----------------------
ASYMMETRIC UNIT IN C2v
----------------------
  #  AT     MASS              COORDS (A.U.)             BAS
   0 B   10.8100   0.00000000   0.00000000  -0.70919896   0
   1 H    1.0080   0.00000000   0.00000000   7.60559603   0

----------------------
SYMMETRY ADAPTED BASIS
----------------------
The coefficients for the symmetry adapted linear combinations (SALCS)
of basis functions will now be computed:
Number of basis functions         ...   126
Preparing memory                  ... done
Constructing Gamma(red)           ... done
Reducing Gamma(red)               ... done
Constructing SALCs                ... done
Checking SALC integrity           ... nothing suspicious
Normalizing SALCs                 ... done

Storing the symmetry object:
Symmetry file                     ... /scratch/BH-4.4-O_461/BH-4.4-O.sym.tmp
Writing symmetry information      ... done

                       ****************************
                       * Single Point Calculation *
                       ****************************

---------------------------------
CARTESIAN COORDINATES (ANGSTROEM)
---------------------------------
  B      0.000000    0.000000   -0.375292
  H      0.000000    0.000000    4.024708

----------------------------
CARTESIAN COORDINATES (A.U.)
----------------------------
  NO LB      ZA    FRAG     MASS         X           Y           Z
   0 B     5.0000    0    10.810    0.000000    0.000000   -0.709199
   1 H     1.0000    0     1.008    0.000000    0.000000    7.605596

--------------------------------
INTERNAL COORDINATES (ANGSTROEM)
--------------------------------
 B      0   0   0     0.000000000000     0.00000000     0.00000000
 H      1   0   0     4.400000000000     0.00000000     0.00000000

---------------------------
INTERNAL COORDINATES (A.U.)
---------------------------
 B      0   0   0     0.000000000000     0.00000000     0.00000000
 H      1   0   0     8.314794989254     0.00000000     0.00000000

---------------------
BASIS SET INFORMATION
---------------------
There are 2 groups of distinct atoms

 Group   1 Type B   : 22s7p4d3f2g contracted to 6s5p4d3f2g pattern {991111/31111/1111/111/11}
 Group   2 Type H   : 7s4p3d2f contracted to 5s4p3d2f pattern {31111/1111/111/11}

Atom   0B    basis set group =>   1
Atom   1H    basis set group =>   2
--------------------------------------------------------------------------
WARNING: There was an error initializing an OpenFabrics device.

  Local host:   cnode13
  Local device: mlx5_0
--------------------------------------------------------------------------


           ************************************************************
           *        Program running with 8 parallel MPI-processes     *
           *              working on a common directory               *
           ************************************************************
------------------------------------------------------------------------------
                           ORCA GTO INTEGRAL CALCULATION
------------------------------------------------------------------------------
------------------------------------------------------------------------------
                   ___                                                        
                  /   \      - P O W E R E D   B Y -                         
                 /     \                                                     
                 |  |  |   _    _      __       _____    __    __             
                 |  |  |  | |  | |    /  \     |  _  \  |  |  /  |          
                  \  \/   | |  | |   /    \    | | | |  |  | /  /          
                 / \  \   | |__| |  /  /\  \   | |_| |  |  |/  /          
                |  |  |   |  __  | /  /__\  \  |    /   |      \           
                |  |  |   | |  | | |   __   |  |    \   |  |\   \          
                \     /   | |  | | |  |  |  |  | |\  \  |  | \   \       
                 \___/    |_|  |_| |__|  |__|  |_| \__\ |__|  \__/        
                                                                              
                      - O R C A' S   B I G   F R I E N D -                    
                                      &                                       
                       - I N T E G R A L  F E E D E R -                       
                                                                              
 v1 FN, 2020, v2 2021                                                         
------------------------------------------------------------------------------


Reading SHARK input file /scratch/BH-4.4-O_461/BH-4.4-O.SHARKINP.tmp ... ok
----------------------
SHARK INTEGRAL PACKAGE
----------------------

Number of atoms                             ...      2
Number of basis functions                   ...    126
Number of shells                            ...     34
Maximum angular momentum                    ...      4
Integral batch strategy                     ... SHARK/LIBINT Hybrid
RI-J (if used) integral strategy            ... SPLIT-RIJ (Revised 2003 algorithm where possible)
Printlevel                                  ...      1
Contraction scheme used                     ... SEGMENTED contraction
Coulomb Range Separation                    ... NOT USED
Exchange Range Separation                   ... NOT USED
Finite Nucleus Model                        ... NOT USED
Auxiliary Coulomb fitting basis             ... NOT available
Auxiliary J/K fitting basis                 ... NOT available
Auxiliary Correlation fitting basis         ... NOT available
Auxiliary 'external' fitting basis          ... NOT available
Integral threshold                          ...     1.000000e-12
Primitive cut-off                           ...     1.000000e-14
Primitive pair pre-selection threshold      ...     1.000000e-14

Calculating pre-screening integrals         ... done (  0.1 sec) Dimension = 34
Organizing shell pair data                  ... done (  0.0 sec)
Shell pair information
Total number of shell pairs                 ...       595
Shell pairs after pre-screening             ...       570
Total number of primitive shell pairs       ...      1563
Primitive shell pairs kept                  ...      1362
          la=0 lb=0:     62 shell pairs
          la=1 lb=0:     93 shell pairs
          la=1 lb=1:     43 shell pairs
          la=2 lb=0:     74 shell pairs
          la=2 lb=1:     61 shell pairs
          la=2 lb=2:     27 shell pairs
          la=3 lb=0:     52 shell pairs
          la=3 lb=1:     43 shell pairs
          la=3 lb=2:     33 shell pairs
          la=3 lb=3:     15 shell pairs
          la=4 lb=0:     22 shell pairs
          la=4 lb=1:     18 shell pairs
          la=4 lb=2:     14 shell pairs
          la=4 lb=3:     10 shell pairs
          la=4 lb=4:      3 shell pairs

Calculating one electron integrals          ... done (  0.0 sec)
Calculating Nuclear repulsion               ... done (  0.0 sec) ENN=      0.601337736705 Eh

SHARK setup successfully completed in   0.1 seconds

Maximum memory used throughout the entire GTOINT-calculation: 28.9 MB
[cnode13:204872] 7 more processes have sent help message help-mpi-btl-openib.txt / error in device init
[cnode13:204872] Set MCA parameter "orte_base_help_aggregate" to 0 to see all help / error messages
--------------------------------------------------------------------------
WARNING: There was an error initializing an OpenFabrics device.

  Local host:   cnode13
  Local device: mlx5_0
--------------------------------------------------------------------------


           ************************************************************
           *        Program running with 8 parallel MPI-processes     *
           *              working on a common directory               *
           ************************************************************
-------------------------------------------------------------------------------
                                 ORCA SCF
-------------------------------------------------------------------------------

------------
SCF SETTINGS
------------
Hamiltonian:
 Ab initio Hamiltonian  Method          .... Hartree-Fock(GTOs)


General Settings:
 Integral files         IntName         .... /scratch/BH-4.4-O_461/BH-4.4-O
 Hartree-Fock type      HFTyp           .... RHF
 Total Charge           Charge          ....    0
 Multiplicity           Mult            ....    1
 Number of Electrons    NEL             ....    6
 Basis Dimension        Dim             ....  126
 Nuclear Repulsion      ENuc            ....      0.6013377367 Eh

 Symmetry handling      UseSym         .... ON
 Point group                           .... C2v
 Used point group                      .... C2v
 Number of irreps                      .... 4
   Irrep   A1 has   50 symmetry adapted basis functions (ofs=   0)
   Irrep   A2 has   16 symmetry adapted basis functions (ofs=  50)
   Irrep   B1 has   30 symmetry adapted basis functions (ofs=  66)
   Irrep   B2 has   30 symmetry adapted basis functions (ofs=  96)

Convergence Acceleration:
 DIIS                   CNVDIIS         .... on
   Start iteration      DIISMaxIt       ....    12
   Startup error        DIISStart       ....  0.200000
   # of expansion vecs  DIISMaxEq       ....     5
   Bias factor          DIISBfac        ....   1.050
   Max. coefficient     DIISMaxC        ....  10.000
 Trust-Rad. Augm. Hess. CNVTRAH         .... auto
   Auto Start mean grad. ratio tolernc. ....  1.125000
   Auto Start start iteration           ....    20
   Auto Start num. interpolation iter.  ....    10
   Max. Number of Micro iterations      ....    16
   Max. Number of Macro iterations      .... Maxiter - #DIIS iter
   Number of Davidson start vectors     ....     2
   Converg. threshold I  (grad. norm)   ....   2.000e-06
   Converg. threshold II (energy diff.) ....   1.000e-09
   Grad. Scal. Fac. for Micro threshold ....   0.100
   Minimum threshold for Micro iter.    ....   0.010
   NR start threshold (gradient norm)   ....   0.001
   Initial trust radius                 ....   0.400
   Minimum AH scaling param. (alpha)    ....   1.000
   Maximum AH scaling param. (alpha)    .... 1000.000
   Orbital update algorithm             .... Taylor
   White noise on init. David. guess    .... on
   Maximum white noise                  ....   0.010
   Quad. conv. algorithm                .... NR
 SOSCF                  CNVSOSCF        .... on
   Start iteration      SOSCFMaxIt      ....   150
   Startup grad/error   SOSCFStart      ....  0.003300
 Level Shifting         CNVShift        .... on
   Level shift para.    LevelShift      ....    0.2500
   Turn off err/grad.   ShiftErr        ....    0.0010
 Zerner damping         CNVZerner       .... off
 Static damping         CNVDamp         .... on
   Fraction old density DampFac         ....    0.7000
   Max. Damping (<1)    DampMax         ....    0.9800
   Min. Damping (>=0)   DampMin         ....    0.0000
   Turn off err/grad.   DampErr         ....    0.1000
 Fernandez-Rico         CNVRico         .... off

SCF Procedure:
 Maximum # iterations   MaxIter         ....   125
 SCF integral mode      SCFMode         .... Direct
   Integral package                     .... SHARK and LIBINT hybrid scheme
 Reset frequency        DirectResetFreq ....    20
 Integral Threshold     Thresh          ....  1.000e-12 Eh
 Primitive CutOff       TCut            ....  1.000e-14 Eh

Convergence Tolerance:
 Convergence Check Mode ConvCheckMode   .... Total+1el-Energy
 Convergence forced     ConvForced      .... 0
 Energy Change          TolE            ....  1.000e-09 Eh
 1-El. energy change                    ....  1.000e-06 Eh
 Orbital Gradient       TolG            ....  2.000e-06
 Orbital Rotation angle TolX            ....  2.000e-06
 DIIS Error             TolErr          ....  1.000e-08


Diagonalization of the overlap matrix:
Smallest eigenvalue                        ... 4.869e-03
Time for diagonalization                   ...    0.002 sec
Threshold for overlap eigenvalues          ... 1.000e-08
Number of eigenvalues below threshold      ... 0
Time for construction of square roots      ...    0.002 sec
Producing symmetrization matrix            ... done (   0.000 sec)
Total time needed                          ...    0.005 sec

Time for model grid setup =    0.007 sec

------------------------------
INITIAL GUESS: MODEL POTENTIAL
------------------------------
Loading Hartree-Fock densities                     ... done
Calculating cut-offs                               ... done
Initializing the effective Hamiltonian             ... done
Setting up the integral package (SHARK)            ... done
Starting the Coulomb interaction                   ... done (   0.0 sec)
Reading the grid                                   ... done
Mapping shells                                     ... done
Starting the XC term evaluation                    ... done (   0.0 sec)
done (   0.0 sec)
Diagonalizing the Hamiltonian                      ... done (   0.0 sec)
Back transforming the eigenvectors                 ... done (   0.0 sec)
Now organizing SCF variables                       ... done
The symmetry of the initial guess is 1-A1
Irrep occupations for operator 0
    A1 -    3
    A2 -    0
    B1 -    0
    B2 -    0
                      ------------------
                      INITIAL GUESS DONE (   0.0 sec)
                      ------------------
--------------
SCF ITERATIONS
--------------
ITER       Energy         Delta-E        Max-DP      RMS-DP      [F,P]     Damp
               ***  Starting incremental Fock matrix formation  ***
  0    -24.7740399856   0.000000000000 0.04509831  0.00093575  0.2049316 0.7000
  1    -24.7956395269  -0.021599541329 0.04637437  0.00092574  0.1600798 0.7000
                               ***Turning on DIIS***
  2    -24.8199989567  -0.024359429776 0.04000313  0.00084033  0.1117186 0.7000
  3    -24.7554526159   0.064546340770 0.09407831  0.00209654  0.0690954 0.0000
  4    -24.9215801907  -0.166127574758 0.01654274  0.00031334  0.0190231 0.0000
  5    -24.9024865088   0.019093681867 0.01060989  0.00023992  0.0089888 0.0000
                      *** Initiating the SOSCF procedure ***
                           *** Shutting down DIIS ***
                      *** Re-Reading the Fockian *** 
                      *** Removing any level shift *** 
ITER      Energy       Delta-E        Grad      Rot      Max-DP    RMS-DP
  6    -24.89250573   0.0099807791  0.002019  0.002019  0.006666  0.000112
               *** Restarting incremental Fock matrix formation ***
  7    -24.88985966   0.0026460669  0.000930  0.002832  0.004153  0.000074
  8    -24.88987321  -0.0000135443  0.000348  0.001866  0.002896  0.000050
  9    -24.88987564  -0.0000024336  0.000159  0.000822  0.000275  0.000007
 10    -24.88987579  -0.0000001489  0.000080  0.000241  0.000182  0.000004
 11    -24.88987586  -0.0000000712  0.000006  0.000016  0.000013  0.000000
                 **** Energy Check signals convergence ****
              ***Rediagonalizing the Fockian in SOSCF/NRSCF***

               *****************************************************
               *                     SUCCESS                       *
               *           SCF CONVERGED AFTER  12 CYCLES          *
               *****************************************************


----------------
TOTAL SCF ENERGY
----------------

Total Energy       :          -24.88987586 Eh            -677.28795 eV

Components:
Nuclear Repulsion  :            0.60133774 Eh              16.36323 eV
Electronic Energy  :          -25.49121360 Eh            -693.65119 eV
One Electron Energy:          -33.48933756 Eh            -911.29120 eV
Two Electron Energy:            7.99812396 Eh             217.64002 eV

Virial components:
Potential Energy   :          -49.65049120 Eh           -1351.05855 eV
Kinetic Energy     :           24.76061534 Eh             673.77060 eV
Virial Ratio       :            2.00522041


---------------
SCF CONVERGENCE
---------------

  Last Energy change         ...   -6.4468e-10  Tolerance :   1.0000e-09
  Last MAX-Density change    ...    7.7633e-06  Tolerance :   1.0000e-08
  Last RMS-Density change    ...    1.8899e-07  Tolerance :   1.0000e-09
  Last Orbital Gradient      ...    2.2669e-06  Tolerance :   2.0000e-06
  Last Orbital Rotation      ...    1.2373e-05  Tolerance :   2.0000e-06

             **** THE GBW FILE WAS UPDATED (/scratch/BH-4.4-O_461/BH-4.4-O.gbw) ****
             **** DENSITY /scratch/BH-4.4-O_461/BH-4.4-O.scfp WAS UPDATED ****
             **** ENERGY FILE WAS UPDATED (/scratch/BH-4.4-O_461/BH-4.4-O.en.tmp) ****
             **** THE GBW FILE WAS UPDATED (/scratch/BH-4.4-O_461/BH-4.4-O.gbw) ****
             **** DENSITY /scratch/BH-4.4-O_461/BH-4.4-O.scfp WAS UPDATED ****
----------------
ORBITAL ENERGIES
----------------

  NO   OCC          E(Eh)            E(eV)    Irrep 
   0   2.0000      -7.893333      -214.7885    1-A1
   1   2.0000      -0.624478       -16.9929    2-A1
   2   2.0000      -0.228734        -6.2242    3-A1
   3   0.0000      -0.082715        -2.2508    4-A1
   4   0.0000      -0.049648        -1.3510    1-B1
   5   0.0000      -0.049648        -1.3510    1-B2
   6   0.0000       0.021914         0.5963    5-A1
   7   0.0000       0.041454         1.1280    2-B1
   8   0.0000       0.041454         1.1280    2-B2
   9   0.0000       0.060337         1.6419    6-A1
  10   0.0000       0.099064         2.6957    7-A1
  11   0.0000       0.117414         3.1950    8-A1
  12   0.0000       0.117414         3.1950    1-A2
  13   0.0000       0.125404         3.4124    3-B1
  14   0.0000       0.125404         3.4124    3-B2
  15   0.0000       0.151997         4.1360    9-A1
  16   0.0000       0.235879         6.4186   10-A1
  17   0.0000       0.241435         6.5698    4-B2
  18   0.0000       0.241435         6.5698    4-B1
  19   0.0000       0.250030         6.8037    5-B2
  20   0.0000       0.250030         6.8037    5-B1
  21   0.0000       0.288243         7.8435   11-A1
  22   0.0000       0.329079         8.9547   12-A1
  23   0.0000       0.413875        11.2621    6-B2
  24   0.0000       0.413875        11.2621    6-B1
  25   0.0000       0.421296        11.4640    2-A2
  26   0.0000       0.421296        11.4640   13-A1
  27   0.0000       0.431834        11.7508    3-A2
  28   0.0000       0.431834        11.7508   14-A1
  29   0.0000       0.432087        11.7577   15-A1
  30   0.0000       0.435488        11.8502    7-B2
  31   0.0000       0.435488        11.8502    7-B1
  32   0.0000       0.444924        12.1070    8-B2
  33   0.0000       0.444924        12.1070    8-B1
  34   0.0000       0.467456        12.7201   16-A1
  35   0.0000       0.547631        14.9018   17-A1
  36   0.0000       0.693213        18.8633   18-A1
  37   0.0000       0.693213        18.8633    4-A2
  38   0.0000       0.723421        19.6853    9-B2
  39   0.0000       0.723421        19.6853    9-B1
  40   0.0000       0.771383        20.9904   19-A1
  41   0.0000       0.870347        23.6833   10-B1
  42   0.0000       0.870347        23.6833   10-B2
  43   0.0000       0.935356        25.4523   20-A1
  44   0.0000       0.939699        25.5705   11-B1
  45   0.0000       0.939699        25.5705   11-B2
  46   0.0000       1.004282        27.3279   21-A1
  47   0.0000       1.287482        35.0342   22-A1
  48   0.0000       1.292565        35.1725    5-A2
  49   0.0000       1.292565        35.1725   23-A1
  50   0.0000       1.299056        35.3491   24-A1
  51   0.0000       1.299056        35.3491    6-A2
  52   0.0000       1.301567        35.4174   12-B1
  53   0.0000       1.301567        35.4174   12-B2
  54   0.0000       1.308597        35.6087   25-A1
  55   0.0000       1.308597        35.6087    7-A2
  56   0.0000       1.311418        35.6855   13-B1
  57   0.0000       1.311418        35.6855   13-B2
  58   0.0000       1.316999        35.8374   14-B2
  59   0.0000       1.316999        35.8374   14-B1
  60   0.0000       1.325056        36.0566   26-A1
  61   0.0000       1.342836        36.5404   27-A1
  62   0.0000       1.345409        36.6104   15-B1
  63   0.0000       1.345409        36.6104   15-B2
  64   0.0000       1.356300        36.9068    8-A2
  65   0.0000       1.356300        36.9068   28-A1
  66   0.0000       1.374944        37.4141   16-B1
  67   0.0000       1.374944        37.4141   16-B2
  68   0.0000       1.434909        39.0459   29-A1
  69   0.0000       1.649702        44.8907   17-B2
  70   0.0000       1.649702        44.8907   17-B1
  71   0.0000       1.651349        44.9355   30-A1
  72   0.0000       1.651349        44.9355    9-A2
  73   0.0000       1.666035        45.3351   18-B2
  74   0.0000       1.666035        45.3351   18-B1
  75   0.0000       1.682912        45.7944   31-A1
  76   0.0000       1.781481        48.4766   32-A1
  77   0.0000       2.559766        69.6548   33-A1
  78   0.0000       2.559766        69.6548   10-A2
  79   0.0000       2.577657        70.1416   19-B2
  80   0.0000       2.577657        70.1416   19-B1
  81   0.0000       2.619442        71.2786   34-A1
  82   0.0000       2.685281        73.0702   20-B1
  83   0.0000       2.685281        73.0702   20-B2
  84   0.0000       2.760668        75.1216   35-A1
  85   0.0000       3.577905        97.3598   21-B2
  86   0.0000       3.577905        97.3598   21-B1
  87   0.0000       3.617399        98.4344   36-A1
  88   0.0000       3.798083       103.3511   37-A1
  89   0.0000       3.798083       103.3511   11-A2
  90   0.0000       3.805997       103.5665   12-A2
  91   0.0000       3.805997       103.5665   38-A1
  92   0.0000       3.808584       103.6368   22-B1
  93   0.0000       3.808584       103.6368   22-B2
  94   0.0000       3.816364       103.8485   13-A2
  95   0.0000       3.816364       103.8485   39-A1
  96   0.0000       3.819869       103.9439   23-B2
  97   0.0000       3.819869       103.9439   23-B1
  98   0.0000       3.822938       104.0274   24-B1
  99   0.0000       3.822938       104.0274   24-B2
 100   0.0000       3.829842       104.2153   40-A1
 101   0.0000       3.847092       104.6847   41-A1
 102   0.0000       3.948099       107.4332   25-B2
 103   0.0000       3.948099       107.4332   25-B1
 104   0.0000       3.959949       107.7557   14-A2
 105   0.0000       3.959949       107.7557   42-A1
 106   0.0000       3.976294       108.2005   26-B1
 107   0.0000       3.976294       108.2005   26-B2
 108   0.0000       4.017852       109.3313   43-A1
 109   0.0000       6.658208       181.1790   27-B1
 110   0.0000       6.658208       181.1790   27-B2
 111   0.0000       6.658902       181.1979   44-A1
 112   0.0000       6.658902       181.1979   15-A2
 113   0.0000       6.662383       181.2927   28-B2
 114   0.0000       6.662383       181.2927   28-B1
 115   0.0000       6.669692       181.4915   45-A1
 116   0.0000       7.540351       205.1834   46-A1
 117   0.0000       8.047697       218.9890   29-B2
 118   0.0000       8.047697       218.9890   29-B1
 119   0.0000       8.090896       220.1645   47-A1
 120   0.0000       8.494910       231.1583   48-A1
 121   0.0000       8.494910       231.1583   16-A2
 122   0.0000       8.506647       231.4776   30-B2
 123   0.0000       8.506647       231.4776   30-B1
 124   0.0000       8.548510       232.6168   49-A1
 125   0.0000      12.871732       350.2576   50-A1

                    ********************************
                    * MULLIKEN POPULATION ANALYSIS *
                    ********************************

-----------------------
MULLIKEN ATOMIC CHARGES
-----------------------
   0 B :    0.398636
   1 H :   -0.398636
Sum of atomic charges:   -0.0000000

--------------------------------
MULLIKEN REDUCED ORBITAL CHARGES
--------------------------------
  0 B s       :     4.008185  s :     4.008185
      pz      :     0.579608  p :     0.579608
      px      :     0.000000
      py      :     0.000000
      dz2     :     0.013179  d :     0.013179
      dxz     :     0.000000
      dyz     :     0.000000
      dx2y2   :     0.000000
      dxy     :     0.000000
      f0      :     0.000390  f :     0.000390
      f+1     :     0.000000
      f-1     :     0.000000
      f+2     :     0.000000
      f-2     :     0.000000
      f+3     :     0.000000
      f-3     :     0.000000
      g0      :     0.000002  g :     0.000002
      g+1     :     0.000000
      g-1     :     0.000000
      g+2     :     0.000000
      g-2     :     0.000000
      g+3     :     0.000000
      g-3     :     0.000000
      g+4     :     0.000000
      g-4     :     0.000000
  1 H s       :     1.393343  s :     1.393343
      pz      :     0.005151  p :     0.005151
      px      :     0.000000
      py      :     0.000000
      dz2     :     0.000140  d :     0.000140
      dxz     :     0.000000
      dyz     :     0.000000
      dx2y2   :     0.000000
      dxy     :     0.000000
      f0      :     0.000003  f :     0.000003
      f+1     :     0.000000
      f-1     :     0.000000
      f+2     :     0.000000
      f-2     :     0.000000
      f+3     :     0.000000
      f-3     :     0.000000


                     *******************************
                     * LOEWDIN POPULATION ANALYSIS *
                     *******************************

----------------------
LOEWDIN ATOMIC CHARGES
----------------------
   0 B :    0.347338
   1 H :   -0.347338

-------------------------------
LOEWDIN REDUCED ORBITAL CHARGES
-------------------------------
  0 B s       :     4.007864  s :     4.007864
      pz      :     0.611892  p :     0.611892
      px      :     0.000000
      py      :     0.000000
      dz2     :     0.030525  d :     0.030525
      dxz     :     0.000000
      dyz     :     0.000000
      dx2y2   :     0.000000
      dxy     :     0.000000
      f0      :     0.002352  f :     0.002352
      f+1     :     0.000000
      f-1     :     0.000000
      f+2     :     0.000000
      f-2     :     0.000000
      f+3     :     0.000000
      f-3     :     0.000000
      g0      :     0.000029  g :     0.000029
      g+1     :     0.000000
      g-1     :     0.000000
      g+2     :     0.000000
      g-2     :     0.000000
      g+3     :     0.000000
      g-3     :     0.000000
      g+4     :     0.000000
      g-4     :     0.000000
  1 H s       :     1.342230  s :     1.342230
      pz      :     0.004764  p :     0.004764
      px      :     0.000000
      py      :     0.000000
      dz2     :     0.000332  d :     0.000332
      dxz     :     0.000000
      dyz     :     0.000000
      dx2y2   :     0.000000
      dxy     :     0.000000
      f0      :     0.000013  f :     0.000013
      f+1     :     0.000000
      f-1     :     0.000000
      f+2     :     0.000000
      f-2     :     0.000000
      f+3     :     0.000000
      f-3     :     0.000000


                      *****************************
                      * MAYER POPULATION ANALYSIS *
                      *****************************

  NA   - Mulliken gross atomic population
  ZA   - Total nuclear charge
  QA   - Mulliken gross atomic charge
  VA   - Mayer's total valence
  BVA  - Mayer's bonded valence
  FA   - Mayer's free valence

  ATOM       NA         ZA         QA         VA         BVA        FA
  0 B      4.6014     5.0000     0.3986     0.8415     0.8415    -0.0000
  1 H      1.3986     1.0000    -0.3986     0.8415     0.8415    -0.0000

  Mayer bond orders larger than 0.100000
B(  0-B ,  1-H ) :   0.8415 

-------
TIMINGS
-------

Total SCF time: 0 days 0 hours 0 min 2 sec 

Total time                  ....       2.138 sec
Sum of individual times     ....       1.981 sec  ( 92.7%)

Fock matrix formation       ....       1.907 sec  ( 89.2%)
Diagonalization             ....       0.025 sec  (  1.2%)
Density matrix formation    ....       0.001 sec  (  0.1%)
Population analysis         ....       0.004 sec  (  0.2%)
Initial guess               ....       0.006 sec  (  0.3%)
Orbital Transformation      ....       0.000 sec  (  0.0%)
Orbital Orthonormalization  ....       0.000 sec  (  0.0%)
DIIS solution               ....       0.015 sec  (  0.7%)
SOSCF solution              ....       0.015 sec  (  0.7%)

Maximum memory used throughout the entire SCF-calculation: 228.5 MB
[cnode13:204936] 7 more processes have sent help message help-mpi-btl-openib.txt / error in device init
[cnode13:204936] Set MCA parameter "orte_base_help_aggregate" to 0 to see all help / error messages

-------------------------   --------------------
FINAL SINGLE POINT ENERGY       -24.889875861422
-------------------------   --------------------


                            ***************************************
                            *     ORCA property calculations      *
                            ***************************************

                                    ---------------------
                                    Active property flags
                                    ---------------------
   (+) Dipole Moment


------------------------------------------------------------------------------
                       ORCA ELECTRIC PROPERTIES CALCULATION
------------------------------------------------------------------------------

Dipole Moment Calculation                       ... on
Quadrupole Moment Calculation                   ... off
Polarizability Calculation                      ... off
GBWName                                         ... /scratch/BH-4.4-O_461/BH-4.4-O.gbw
Electron density file                           ... /scratch/BH-4.4-O_461/BH-4.4-O.scfp
The origin for moment calculation is the CENTER OF MASS  = ( 0.000000,  0.000000 -0.000000)

-------------
DIPOLE MOMENT
-------------
                                X             Y             Z
Electronic contribution:     -0.00000      -0.00000      -7.60591
Nuclear contribution   :      0.00000       0.00000       4.05960
                        -----------------------------------------
Total Dipole Moment    :     -0.00000      -0.00000      -3.54631
                        -----------------------------------------
Magnitude (a.u.)       :      3.54631
Magnitude (Debye)      :      9.01400



--------------------
Rotational spectrum 
--------------------
 
Rotational constants in cm-1:     0.000000     0.944385     0.944385 
Rotational constants in MHz :     0.000000 28311.964858 28311.964858 

 Dipole components along the rotational axes: 
x,y,z [a.u.] :    -3.546307    -0.000000    -0.000000 
x,y,z [Debye]:    -9.013996    -0.000000    -0.000000 

 
--------------------------------------------------------------------------
WARNING: There was an error initializing an OpenFabrics device.

  Local host:   cnode13
  Local device: mlx5_0
--------------------------------------------------------------------------
[cnode13:205139] 7 more processes have sent help message help-mpi-btl-openib.txt / error in device init
[cnode13:205139] Set MCA parameter "orte_base_help_aggregate" to 0 to see all help / error messages

Timings for individual modules:

Sum of individual times         ...        3.005 sec (=   0.050 min)
GTO integral calculation        ...        0.489 sec (=   0.008 min)  16.3 %
SCF iterations                  ...        2.515 sec (=   0.042 min)  83.7 %
                             ****ORCA TERMINATED NORMALLY****
TOTAL RUN TIME: 0 days 0 hours 0 minutes 3 seconds 457 msec

Sender: Unischeduler System <lcz@mgt01>
Subject: Job 133506: <#!/bin/bash
#BSUB -J intel
#BSUB -o BH-4.4-O.out
#BSUB -n 8
#BSUB -q cqueue
export LD_LIBRARY_PATH=/apps/software/openmpi-4.1.1/lib:/apps/software/orca_5_0_0:$LD_LIBRARY_PATH
export PATH=/apps/software/openmpi-4.1.1/bin:/apps/software/orca_5_0_0:$PATH
mkdir /scratch/BH-4.4-O_461
scp $USER@mgt01:/apps/users/lcz/exe13/RHF/BH-4.4-O.inp /scratch/BH-4.4-O_461
/apps/software/orca_5_0_0/orca /scratch/BH-4.4-O_461/BH-4.4-O.inp >& BH-4.4-O.out
scp /scratch/BH-4.4-O_461/*.gbw $USER@mgt01:/apps/users/lcz/exe13/RHF
scp /scratch/BH-4.4-O_461/*.xyz $USER@mgt01:/apps/users/lcz/exe13/RHF
scp /scratch/BH-4.4-O_461/*.trj $USER@mgt01:/apps/users/lcz/exe13/RHF> Exited

Job <#!/bin/bash
#BSUB -J intel
#BSUB -o BH-4.4-O.out
#BSUB -n 8
#BSUB -q cqueue
export LD_LIBRARY_PATH=/apps/software/openmpi-4.1.1/lib:/apps/software/orca_5_0_0:$LD_LIBRARY_PATH
export PATH=/apps/software/openmpi-4.1.1/bin:/apps/software/orca_5_0_0:$PATH
mkdir /scratch/BH-4.4-O_461
scp $USER@mgt01:/apps/users/lcz/exe13/RHF/BH-4.4-O.inp /scratch/BH-4.4-O_461
/apps/software/orca_5_0_0/orca /scratch/BH-4.4-O_461/BH-4.4-O.inp >& BH-4.4-O.out
scp /scratch/BH-4.4-O_461/*.gbw $USER@mgt01:/apps/users/lcz/exe13/RHF
scp /scratch/BH-4.4-O_461/*.xyz $USER@mgt01:/apps/users/lcz/exe13/RHF
scp /scratch/BH-4.4-O_461/*.trj $USER@mgt01:/apps/users/lcz/exe13/RHF> was submitted from host <mgt01> by user <lcz>.
Job was executed on host(s) <8*cnode13>, in queue <cqueue>, as user <lcz>.
</apps/users/lcz> was used as the home directory.
</apps/users/lcz/exe13/RHF> was used as the working directory.
Started at 2022-05-21 17:14:26
Results reported at 2022-05-21 17:14:31

Your job looked like:

------------------------------------------------------------
# User input
#!/bin/bash
#BSUB -J intel
#BSUB -o BH-4.4-O.out
#BSUB -n 8
#BSUB -q cqueue
export LD_LIBRARY_PATH=/apps/software/openmpi-4.1.1/lib:/apps/software/orca_5_0_0:$LD_LIBRARY_PATH
export PATH=/apps/software/openmpi-4.1.1/bin:/apps/software/orca_5_0_0:$PATH
mkdir /scratch/BH-4.4-O_461
scp $USER@mgt01:/apps/users/lcz/exe13/RHF/BH-4.4-O.inp /scratch/BH-4.4-O_461
/apps/software/orca_5_0_0/orca /scratch/BH-4.4-O_461/BH-4.4-O.inp >& BH-4.4-O.out
scp /scratch/BH-4.4-O_461/*.gbw $USER@mgt01:/apps/users/lcz/exe13/RHF
scp /scratch/BH-4.4-O_461/*.xyz $USER@mgt01:/apps/users/lcz/exe13/RHF
scp /scratch/BH-4.4-O_461/*.trj $USER@mgt01:/apps/users/lcz/exe13/RHF
------------------------------------------------------------

Exited with exit code 1.

Resource usage summary:

    CPU time   :            0.02 sec.
    Max Memory :                 8 MB
    Max Processes  :               2


The output (if any) follows:

/scratch/BH-4.4-O_461/*.xyz: No such file or directory
/scratch/BH-4.4-O_461/*.trj: No such file or directory
