
                                        *****************
                                        * O   R   C   A *
                                        *****************

                                            #,                                       
                                            ###                                      
                                            ####                                     
                                            #####                                    
                                            ######                                   
                                           ########,                                 
                                     ,,################,,,,,                         
                               ,,#################################,,                 
                          ,,##########################################,,             
                       ,#########################################, ''#####,          
                    ,#############################################,,   '####,        
                  ,##################################################,,,,####,       
                ,###########''''           ''''###############################       
              ,#####''   ,,,,##########,,,,          '''####'''          '####       
            ,##' ,,,,###########################,,,                        '##       
           ' ,,###''''                  '''############,,,                           
         ,,##''                                '''############,,,,        ,,,,,,###''
      ,#''                                            '''#######################'''  
     '                                                          ''''####''''         
             ,#######,   #######,   ,#######,      ##                                
            ,#'     '#,  ##    ##  ,#'     '#,    #''#        ######   ,####,        
            ##       ##  ##   ,#'  ##            #'  '#       #        #'  '#        
            ##       ##  #######   ##           ,######,      #####,   #    #        
            '#,     ,#'  ##    ##  '#,     ,#' ,#      #,         ##   #,  ,#        
             '#######'   ##     ##  '#######'  #'      '#     #####' # '####'        



                  #######################################################
                  #                        -***-                        #
                  #          Department of theory and spectroscopy      #
                  #    Directorship and core code : Frank Neese         #
                  #        Max Planck Institute fuer Kohlenforschung    #
                  #                Kaiser Wilhelm Platz 1               #
                  #                 D-45470 Muelheim/Ruhr               #
                  #                      Germany                        #
                  #                                                     #
                  #                  All rights reserved                #
                  #                        -***-                        #
                  #######################################################


                         Program Version 5.0.0 -  RELEASE  -
                                (SVN: $Rev: 19529$)
                ($Date: 2021-06-28 11:36:33 +0200 (Mo, 28 Jun 2021) $)


 With contributions from (in alphabetic order):
   Daniel Aravena         : Magnetic Suceptibility
   Michael Atanasov       : Ab Initio Ligand Field Theory (pilot matlab implementation)
   Alexander A. Auer      : GIAO ZORA, VPT2 properties, NMR spectrum
   Ute Becker             : Parallelization
   Giovanni Bistoni       : ED, misc. LED, open-shell LED, HFLD
   Martin Brehm           : Molecular dynamics
   Dmytro Bykov           : SCF Hessian
   Vijay G. Chilkuri      : MRCI spin determinant printing, contributions to CSF-ICE
   Dipayan Datta          : RHF DLPNO-CCSD density
   Achintya Kumar Dutta   : EOM-CC, STEOM-CC
   Dmitry Ganyushin       : Spin-Orbit,Spin-Spin,Magnetic field MRCI
   Miquel Garcia          : C-PCM Hessian, Gaussian charge scheme
   Yang Guo               : DLPNO-NEVPT2, F12-NEVPT2, CIM, IAO-localization
   Andreas Hansen         : Spin unrestricted coupled pair/coupled cluster methods
   Benjamin Helmich-Paris : MC-RPA, TRAH-SCF, COSX integrals
   Lee Huntington         : MR-EOM, pCC
   Robert Izsak           : Overlap fitted RIJCOSX, COSX-SCS-MP3, EOM
   Marcus Kettner         : VPT2
   Christian Kollmar      : KDIIS, OOCD, Brueckner-CCSD(T), CCSD density, CASPT2, CASPT2-K
   Simone Kossmann        : Meta GGA functionals, TD-DFT gradient, OOMP2, MP2 Hessian
   Martin Krupicka        : Initial AUTO-CI
   Lucas Lang             : DCDCAS
   Marvin Lechner         : AUTO-CI (C++ implementation), FIC-MRCC
   Dagmar Lenk            : GEPOL surface, SMD
   Dimitrios Liakos       : Extrapolation schemes; Compound Job, initial MDCI parallelization
   Dimitrios Manganas     : Further ROCIS development; embedding schemes
   Dimitrios Pantazis     : SARC Basis sets
   Anastasios Papadopoulos: AUTO-CI, single reference methods and gradients
   Taras Petrenko         : DFT Hessian,TD-DFT gradient, ASA, ECA, R-Raman, ABS, FL, XAS/XES, NRVS
   Peter Pinski           : DLPNO-MP2, DLPNO-MP2 Gradient
   Christoph Reimann      : Effective Core Potentials
   Marius Retegan         : Local ZFS, SOC
   Christoph Riplinger    : Optimizer, TS searches, QM/MM, DLPNO-CCSD(T), (RO)-DLPNO pert. Triples
   Tobias Risthaus        : Range-separated hybrids, TD-DFT gradient, RPA, STAB
   Michael Roemelt        : Original ROCIS implementation
   Masaaki Saitow         : Open-shell DLPNO-CCSD energy and density
   Barbara Sandhoefer     : DKH picture change effects
   Avijit Sen             : IP-ROCIS
   Kantharuban Sivalingam : CASSCF convergence, NEVPT2, FIC-MRCI
   Bernardo de Souza      : ESD, SOC TD-DFT
   Georgi Stoychev        : AutoAux, RI-MP2 NMR
   Willem Van den Heuvel  : Paramagnetic NMR
   Boris Wezisla          : Elementary symmetry handling
   Frank Wennmohs         : Technical directorship


 We gratefully acknowledge several colleagues who have allowed us to
 interface, adapt or use parts of their codes:
   Stefan Grimme, W. Hujo, H. Kruse, P. Pracht,  : VdW corrections, initial TS optimization,
                  C. Bannwarth, S. Ehlert          DFT functionals, gCP, sTDA/sTD-DF
   Ed Valeev, F. Pavosevic, A. Kumar             : LibInt (2-el integral package), F12 methods
   Garnet Chan, S. Sharma, J. Yang, R. Olivares  : DMRG
   Ulf Ekstrom                                   : XCFun DFT Library
   Mihaly Kallay                                 : mrcc  (arbitrary order and MRCC methods)
   Jiri Pittner, Ondrej Demel                    : Mk-CCSD
   Frank Weinhold                                : gennbo (NPA and NBO analysis)
   Christopher J. Cramer and Donald G. Truhlar   : smd solvation model
   Lars Goerigk                                  : TD-DFT with DH, B97 family of functionals
   V. Asgeirsson, H. Jonsson                     : NEB implementation
   FAccTs GmbH                                   : IRC, NEB, NEB-TS, DLPNO-Multilevel, CI-OPT
                                                   MM, QMMM, 2- and 3-layer-ONIOM, Crystal-QMMM,
                                                   LR-CPCM, SF, NACMEs, symmetry and pop. for TD-DFT,
                                                   nearIR, NL-DFT gradient (VV10), updates on ESD,
                                                   ML-optimized integration grids
   S Lehtola, MJT Oliveira, MAL Marques          : LibXC Library
   Liviu Ungur et al                             : ANISO software


 Your calculation uses the libint2 library for the computation of 2-el integrals
 For citations please refer to: http://libint.valeyev.net

 Your ORCA version has been built with support for libXC version: 5.1.0
 For citations please refer to: https://tddft.org/programs/libxc/

 This ORCA versions uses:
   CBLAS   interface :  Fast vector & matrix operations
   LAPACKE interface :  Fast linear algebra routines
   SCALAPACK package :  Parallel linear algebra routines
   Shared memory     :  Shared parallel matrices
   BLAS/LAPACK       :  OpenBLAS 0.3.15  USE64BITINT DYNAMIC_ARCH NO_AFFINITY SkylakeX SINGLE_THREADED
        Core in use  :  SkylakeX
   Copyright (c) 2011-2014, The OpenBLAS Project


================================================================================

----- Orbital basis set information -----
Your calculation utilizes the basis: aug-cc-pVQZ 
    H, B-Ne : Obtained from the ccRepo (grant-hill.group.shef.ac.uk/ccrepo) Feb. 2017
              R. A. Kendall, T. H. Dunning, Jr., R. J. Harrison, J. Chem. Phys. 96, 6796 (1992)
         He : Obtained from the ccRepo (grant-hill.group.shef.ac.uk/ccrepo) Feb. 2017
              D. E. Woon, T. H. Dunning, Jr., J. Chem. Phys. 100, 2975 (1994)
  Li-Be, Na : Obtained from the ccRepo (grant-hill.group.shef.ac.uk/ccrepo) Feb. 2017
              B. P. Prascher, D. E. Woon, K. A. Peterson, T. H. Dunning, Jr., A. K. Wilson, Theor. Chem. Acc. 128, 69 (2011)
         Mg : Obtained from the Peterson Research Group Website (tyr0.chem.wsu.edu/~kipeters) Feb. 2017
              B. P. Prascher, D. E. Woon, K. A. Peterson, T. H. Dunning, Jr., A. K. Wilson, Theor. Chem. Acc. 128, 69 (2011)
      Al-Ar : Obtained from the ccRepo (grant-hill.group.shef.ac.uk/ccrepo) Feb. 2017
              D. E. Woon, T. H. Dunning, Jr., J. Chem. Phys. 98, 1358 (1993)
      Sc-Zn : Obtained from the ccRepo (grant-hill.group.shef.ac.uk/ccrepo) Feb. 2017
              N. B. Balabanov, K. A. Peterson, J. Chem. Phys. 123, 064107 (2005)
              N. B. Balabanov, K. A. Peterson, J. Chem. Phys. 125, 074110 (2006)
      Ga-Kr : Obtained from the ccRepo (grant-hill.group.shef.ac.uk/ccrepo) Feb. 2017
              A. K. Wilson, D. E. Woon, K. A. Peterson, T. H. Dunning, Jr., J. Chem. Phys. 110, 7667 (1999)

================================================================================
                                        WARNINGS
                       Please study these warnings very carefully!
================================================================================


INFO   : the flag for use of the SHARK integral package has been found!

================================================================================
                                       INPUT FILE
================================================================================
NAME = /scratch/BH-5.4-O_410/BH-5.4-O.inp
|  1> ! RHF aug-cc-pVQZ pal8 VeryTightSCF UseSym
|  2> 
|  3> *xyz 0 1
|  4>  B	0.0	0.0	0.0
|  5>  H	5.4	0.0	0.0
|  6> **                         ****END OF INPUT****
================================================================================

------------------------------------------------------------------------------
                            SYMMETRY HANDLING SETUP
------------------------------------------------------------------------------

------------------
SYMMETRY DETECTION
------------------
The point group will now be determined using a tolerance of 1.0000e-04.
Splitting atom subsets according to nuclear charge, mass and basis set.
Splitting atom subsets according to distance from the molecule's center.
Identifying relative distance patterns of the atoms.
Splitting atom subsets according to atoms' relative distance patterns.
Bring atoms of each subset into input order.
The molecule is linear.
There is at least one atom subset not centered around the molecule's center.
The molecule does not have a center of inversion.
No further test is needed for point group Cinfv.
This point group has been found:    Cinfv
Largest non-degenerate subgroup:    C2v


Mass-centered symmetry-perfected Cartesians (point groups Cinfv and C2v):

Atom          Symmetry-perfected Cartesians (x, y, z; au)
  0       0.000000000000    0.000000000000   -0.870380545960
  1       0.000000000000    0.000000000000    9.334140577214


-----------------------------------------------
SYMMETRY-PERFECTED CARTESIAN COORDINATES (A.U.)
-----------------------------------------------
Warning (ORCA_SYM): Coordinates were not cleaned so far!

------------------
SYMMETRY REDUCTION
------------------
ORCA supports only abelian point groups.
It is now checked, if the determined point group is supported:
Point Group ( C2v   ) is          ... supported

(Re)building abelian point group:
Creating Character Table          ... done
Making direct product table       ... done
Constructing symmetry operations  ... done
Creating atom transfer table      ... done
Creating asymmetric unit          ... done

----------------------
ASYMMETRIC UNIT IN C2v
----------------------
  #  AT     MASS              COORDS (A.U.)             BAS
   0 B   10.8100   0.00000000   0.00000000  -0.87038055   0
   1 H    1.0080   0.00000000   0.00000000   9.33414058   0

----------------------
SYMMETRY ADAPTED BASIS
----------------------
The coefficients for the symmetry adapted linear combinations (SALCS)
of basis functions will now be computed:
Number of basis functions         ...   126
Preparing memory                  ... done
Constructing Gamma(red)           ... done
Reducing Gamma(red)               ... done
Constructing SALCs                ... done
Checking SALC integrity           ... nothing suspicious
Normalizing SALCs                 ... done

Storing the symmetry object:
Symmetry file                     ... /scratch/BH-5.4-O_410/BH-5.4-O.sym.tmp
Writing symmetry information      ... done

                       ****************************
                       * Single Point Calculation *
                       ****************************

---------------------------------
CARTESIAN COORDINATES (ANGSTROEM)
---------------------------------
  B      0.000000    0.000000   -0.460586
  H      0.000000    0.000000    4.939414

----------------------------
CARTESIAN COORDINATES (A.U.)
----------------------------
  NO LB      ZA    FRAG     MASS         X           Y           Z
   0 B     5.0000    0    10.810    0.000000    0.000000   -0.870381
   1 H     1.0000    0     1.008    0.000000    0.000000    9.334141

--------------------------------
INTERNAL COORDINATES (ANGSTROEM)
--------------------------------
 B      0   0   0     0.000000000000     0.00000000     0.00000000
 H      1   0   0     5.400000000000     0.00000000     0.00000000

---------------------------
INTERNAL COORDINATES (A.U.)
---------------------------
 B      0   0   0     0.000000000000     0.00000000     0.00000000
 H      1   0   0    10.204521123175     0.00000000     0.00000000

---------------------
BASIS SET INFORMATION
---------------------
There are 2 groups of distinct atoms

 Group   1 Type B   : 22s7p4d3f2g contracted to 6s5p4d3f2g pattern {991111/31111/1111/111/11}
 Group   2 Type H   : 7s4p3d2f contracted to 5s4p3d2f pattern {31111/1111/111/11}

Atom   0B    basis set group =>   1
Atom   1H    basis set group =>   2
--------------------------------------------------------------------------
WARNING: There was an error initializing an OpenFabrics device.

  Local host:   cnode12
  Local device: mlx5_0
--------------------------------------------------------------------------


           ************************************************************
           *        Program running with 8 parallel MPI-processes     *
           *              working on a common directory               *
           ************************************************************
------------------------------------------------------------------------------
                           ORCA GTO INTEGRAL CALCULATION
------------------------------------------------------------------------------
------------------------------------------------------------------------------
                   ___                                                        
                  /   \      - P O W E R E D   B Y -                         
                 /     \                                                     
                 |  |  |   _    _      __       _____    __    __             
                 |  |  |  | |  | |    /  \     |  _  \  |  |  /  |          
                  \  \/   | |  | |   /    \    | | | |  |  | /  /          
                 / \  \   | |__| |  /  /\  \   | |_| |  |  |/  /          
                |  |  |   |  __  | /  /__\  \  |    /   |      \           
                |  |  |   | |  | | |   __   |  |    \   |  |\   \          
                \     /   | |  | | |  |  |  |  | |\  \  |  | \   \       
                 \___/    |_|  |_| |__|  |__|  |_| \__\ |__|  \__/        
                                                                              
                      - O R C A' S   B I G   F R I E N D -                    
                                      &                                       
                       - I N T E G R A L  F E E D E R -                       
                                                                              
 v1 FN, 2020, v2 2021                                                         
------------------------------------------------------------------------------


Reading SHARK input file /scratch/BH-5.4-O_410/BH-5.4-O.SHARKINP.tmp ... ok
----------------------
SHARK INTEGRAL PACKAGE
----------------------

Number of atoms                             ...      2
Number of basis functions                   ...    126
Number of shells                            ...     34
Maximum angular momentum                    ...      4
Integral batch strategy                     ... SHARK/LIBINT Hybrid
RI-J (if used) integral strategy            ... SPLIT-RIJ (Revised 2003 algorithm where possible)
Printlevel                                  ...      1
Contraction scheme used                     ... SEGMENTED contraction
Coulomb Range Separation                    ... NOT USED
Exchange Range Separation                   ... NOT USED
Finite Nucleus Model                        ... NOT USED
Auxiliary Coulomb fitting basis             ... NOT available
Auxiliary J/K fitting basis                 ... NOT available
Auxiliary Correlation fitting basis         ... NOT available
Auxiliary 'external' fitting basis          ... NOT available
Integral threshold                          ...     1.000000e-12
Primitive cut-off                           ...     1.000000e-14
Primitive pair pre-selection threshold      ...     1.000000e-14

Calculating pre-screening integrals         ... done (  0.1 sec) Dimension = 34
Organizing shell pair data                  ... done (  0.0 sec)
Shell pair information
Total number of shell pairs                 ...       595
Shell pairs after pre-screening             ...       548
Total number of primitive shell pairs       ...      1563
Primitive shell pairs kept                  ...      1314
          la=0 lb=0:     61 shell pairs
          la=1 lb=0:     91 shell pairs
          la=1 lb=1:     42 shell pairs
          la=2 lb=0:     69 shell pairs
          la=2 lb=1:     58 shell pairs
          la=2 lb=2:     26 shell pairs
          la=3 lb=0:     50 shell pairs
          la=3 lb=1:     41 shell pairs
          la=3 lb=2:     33 shell pairs
          la=3 lb=3:     14 shell pairs
          la=4 lb=0:     21 shell pairs
          la=4 lb=1:     17 shell pairs
          la=4 lb=2:     13 shell pairs
          la=4 lb=3:      9 shell pairs
          la=4 lb=4:      3 shell pairs

Calculating one electron integrals          ... done (  0.0 sec)
Calculating Nuclear repulsion               ... done (  0.0 sec) ENN=      0.489978896574 Eh

SHARK setup successfully completed in   0.1 seconds

Maximum memory used throughout the entire GTOINT-calculation: 28.9 MB
[cnode12:123703] 7 more processes have sent help message help-mpi-btl-openib.txt / error in device init
[cnode12:123703] Set MCA parameter "orte_base_help_aggregate" to 0 to see all help / error messages
--------------------------------------------------------------------------
WARNING: There was an error initializing an OpenFabrics device.

  Local host:   cnode12
  Local device: mlx5_0
--------------------------------------------------------------------------


           ************************************************************
           *        Program running with 8 parallel MPI-processes     *
           *              working on a common directory               *
           ************************************************************
-------------------------------------------------------------------------------
                                 ORCA SCF
-------------------------------------------------------------------------------

------------
SCF SETTINGS
------------
Hamiltonian:
 Ab initio Hamiltonian  Method          .... Hartree-Fock(GTOs)


General Settings:
 Integral files         IntName         .... /scratch/BH-5.4-O_410/BH-5.4-O
 Hartree-Fock type      HFTyp           .... RHF
 Total Charge           Charge          ....    0
 Multiplicity           Mult            ....    1
 Number of Electrons    NEL             ....    6
 Basis Dimension        Dim             ....  126
 Nuclear Repulsion      ENuc            ....      0.4899788966 Eh

 Symmetry handling      UseSym         .... ON
 Point group                           .... C2v
 Used point group                      .... C2v
 Number of irreps                      .... 4
   Irrep   A1 has   50 symmetry adapted basis functions (ofs=   0)
   Irrep   A2 has   16 symmetry adapted basis functions (ofs=  50)
   Irrep   B1 has   30 symmetry adapted basis functions (ofs=  66)
   Irrep   B2 has   30 symmetry adapted basis functions (ofs=  96)

Convergence Acceleration:
 DIIS                   CNVDIIS         .... on
   Start iteration      DIISMaxIt       ....    12
   Startup error        DIISStart       ....  0.200000
   # of expansion vecs  DIISMaxEq       ....     5
   Bias factor          DIISBfac        ....   1.050
   Max. coefficient     DIISMaxC        ....  10.000
 Trust-Rad. Augm. Hess. CNVTRAH         .... auto
   Auto Start mean grad. ratio tolernc. ....  1.125000
   Auto Start start iteration           ....    20
   Auto Start num. interpolation iter.  ....    10
   Max. Number of Micro iterations      ....    16
   Max. Number of Macro iterations      .... Maxiter - #DIIS iter
   Number of Davidson start vectors     ....     2
   Converg. threshold I  (grad. norm)   ....   2.000e-06
   Converg. threshold II (energy diff.) ....   1.000e-09
   Grad. Scal. Fac. for Micro threshold ....   0.100
   Minimum threshold for Micro iter.    ....   0.010
   NR start threshold (gradient norm)   ....   0.001
   Initial trust radius                 ....   0.400
   Minimum AH scaling param. (alpha)    ....   1.000
   Maximum AH scaling param. (alpha)    .... 1000.000
   Orbital update algorithm             .... Taylor
   White noise on init. David. guess    .... on
   Maximum white noise                  ....   0.010
   Quad. conv. algorithm                .... NR
 SOSCF                  CNVSOSCF        .... on
   Start iteration      SOSCFMaxIt      ....   150
   Startup grad/error   SOSCFStart      ....  0.003300
 Level Shifting         CNVShift        .... on
   Level shift para.    LevelShift      ....    0.2500
   Turn off err/grad.   ShiftErr        ....    0.0010
 Zerner damping         CNVZerner       .... off
 Static damping         CNVDamp         .... on
   Fraction old density DampFac         ....    0.7000
   Max. Damping (<1)    DampMax         ....    0.9800
   Min. Damping (>=0)   DampMin         ....    0.0000
   Turn off err/grad.   DampErr         ....    0.1000
 Fernandez-Rico         CNVRico         .... off

SCF Procedure:
 Maximum # iterations   MaxIter         ....   125
 SCF integral mode      SCFMode         .... Direct
   Integral package                     .... SHARK and LIBINT hybrid scheme
 Reset frequency        DirectResetFreq ....    20
 Integral Threshold     Thresh          ....  1.000e-12 Eh
 Primitive CutOff       TCut            ....  1.000e-14 Eh

Convergence Tolerance:
 Convergence Check Mode ConvCheckMode   .... Total+1el-Energy
 Convergence forced     ConvForced      .... 0
 Energy Change          TolE            ....  1.000e-09 Eh
 1-El. energy change                    ....  1.000e-06 Eh
 Orbital Gradient       TolG            ....  2.000e-06
 Orbital Rotation angle TolX            ....  2.000e-06
 DIIS Error             TolErr          ....  1.000e-08


Diagonalization of the overlap matrix:
Smallest eigenvalue                        ... 4.891e-03
Time for diagonalization                   ...    0.002 sec
Threshold for overlap eigenvalues          ... 1.000e-08
Number of eigenvalues below threshold      ... 0
Time for construction of square roots      ...    0.002 sec
Producing symmetrization matrix            ... done (   0.000 sec)
Total time needed                          ...    0.004 sec

Time for model grid setup =    0.007 sec

------------------------------
INITIAL GUESS: MODEL POTENTIAL
------------------------------
Loading Hartree-Fock densities                     ... done
Calculating cut-offs                               ... done
Initializing the effective Hamiltonian             ... done
Setting up the integral package (SHARK)            ... done
Starting the Coulomb interaction                   ... done (   0.0 sec)
Reading the grid                                   ... done
Mapping shells                                     ... done
Starting the XC term evaluation                    ... done (   0.0 sec)
done (   0.0 sec)
Diagonalizing the Hamiltonian                      ... done (   0.0 sec)
Back transforming the eigenvectors                 ... done (   0.0 sec)
Now organizing SCF variables                       ... done
The symmetry of the initial guess is 1-A1
Irrep occupations for operator 0
    A1 -    3
    A2 -    0
    B1 -    0
    B2 -    0
                      ------------------
                      INITIAL GUESS DONE (   0.0 sec)
                      ------------------
--------------
SCF ITERATIONS
--------------
ITER       Energy         Delta-E        Max-DP      RMS-DP      [F,P]     Damp
               ***  Starting incremental Fock matrix formation  ***
  0    -24.7477648603   0.000000000000 0.05075510  0.00093992  0.2074205 0.7000
  1    -24.7662858165  -0.018520956161 0.04482299  0.00090877  0.1642052 0.7000
                               ***Turning on DIIS***
  2    -24.7861853180  -0.019899501526 0.03969884  0.00086897  0.1192506 0.7000
  3    -24.7594919833   0.026693334650 0.10787596  0.00259414  0.0768628 0.0000
  4    -24.9206482564  -0.161156273036 0.02815875  0.00047024  0.0274068 0.0000
  5    -24.8947673602   0.025880896158 0.01605076  0.00036410  0.0165090 0.0000
  6    -24.8764191924   0.018348167845 0.01170794  0.00020651  0.0074831 0.0000
                      *** Initiating the SOSCF procedure ***
                           *** Shutting down DIIS ***
                      *** Re-Reading the Fockian *** 
                      *** Removing any level shift *** 
ITER      Energy       Delta-E        Grad      Rot      Max-DP    RMS-DP
  7    -24.86891761   0.0075015791  0.002112  0.002112  0.005131  0.000094
               *** Restarting incremental Fock matrix formation ***
  8    -24.86732838   0.0015892289  0.000992  0.003128  0.004307  0.000083
  9    -24.86734200  -0.0000136201  0.000384  0.001982  0.002649  0.000052
 10    -24.86734444  -0.0000024390  0.000017  0.000052  0.000059  0.000001
 11    -24.86734445  -0.0000000059  0.000008  0.000071  0.000059  0.000001
 12    -24.86734445  -0.0000000004  0.000011  0.000042  0.000021  0.000001
 13    -24.86734445  -0.0000000014  0.000001  0.000001  0.000001  0.000000
                 **** Energy Check signals convergence ****
              ***Rediagonalizing the Fockian in SOSCF/NRSCF***

               *****************************************************
               *                     SUCCESS                       *
               *           SCF CONVERGED AFTER  14 CYCLES          *
               *****************************************************


----------------
TOTAL SCF ENERGY
----------------

Total Energy       :          -24.86734445 Eh            -676.67484 eV

Components:
Nuclear Repulsion  :            0.48997890 Eh              13.33300 eV
Electronic Energy  :          -25.35732335 Eh            -690.00785 eV
One Electron Energy:          -33.23369367 Eh            -904.33478 eV
Two Electron Energy:            7.87637032 Eh             214.32693 eV

Virial components:
Potential Energy   :          -49.64504638 Eh           -1350.91039 eV
Kinetic Energy     :           24.77770193 Eh             674.23555 eV
Virial Ratio       :            2.00361787


---------------
SCF CONVERGENCE
---------------

  Last Energy change         ...   -5.8549e-12  Tolerance :   1.0000e-09
  Last MAX-Density change    ...    1.0184e-06  Tolerance :   1.0000e-08
  Last RMS-Density change    ...    2.2432e-08  Tolerance :   1.0000e-09
  Last Orbital Gradient      ...    1.6474e-07  Tolerance :   2.0000e-06
  Last Orbital Rotation      ...    9.2092e-07  Tolerance :   2.0000e-06

             **** THE GBW FILE WAS UPDATED (/scratch/BH-5.4-O_410/BH-5.4-O.gbw) ****
             **** DENSITY /scratch/BH-5.4-O_410/BH-5.4-O.scfp WAS UPDATED ****
             **** ENERGY FILE WAS UPDATED (/scratch/BH-5.4-O_410/BH-5.4-O.en.tmp) ****
             **** THE GBW FILE WAS UPDATED (/scratch/BH-5.4-O_410/BH-5.4-O.gbw) ****
             **** DENSITY /scratch/BH-5.4-O_410/BH-5.4-O.scfp WAS UPDATED ****
----------------
ORBITAL ENERGIES
----------------

  NO   OCC          E(Eh)            E(eV)    Irrep 
   0   2.0000      -7.896784      -214.8824    1-A1
   1   2.0000      -0.631130       -17.1739    2-A1
   2   2.0000      -0.212563        -5.7841    3-A1
   3   0.0000      -0.102688        -2.7943    4-A1
   4   0.0000      -0.056485        -1.5370    1-B1
   5   0.0000      -0.056485        -1.5370    1-B2
   6   0.0000       0.018613         0.5065    5-A1
   7   0.0000       0.037529         1.0212    2-B2
   8   0.0000       0.037529         1.0212    2-B1
   9   0.0000       0.052505         1.4287    6-A1
  10   0.0000       0.104199         2.8354    7-A1
  11   0.0000       0.111074         3.0225    1-A2
  12   0.0000       0.111074         3.0225    8-A1
  13   0.0000       0.117856         3.2070    3-B1
  14   0.0000       0.117856         3.2070    3-B2
  15   0.0000       0.135288         3.6814    9-A1
  16   0.0000       0.228707         6.2234   10-A1
  17   0.0000       0.236603         6.4383    4-B1
  18   0.0000       0.236603         6.4383    4-B2
  19   0.0000       0.242633         6.6024    5-B1
  20   0.0000       0.242633         6.6024    5-B2
  21   0.0000       0.280567         7.6346   11-A1
  22   0.0000       0.294986         8.0270   12-A1
  23   0.0000       0.406461        11.0604    6-B2
  24   0.0000       0.406461        11.0604    6-B1
  25   0.0000       0.413385        11.2488    2-A2
  26   0.0000       0.413385        11.2488   13-A1
  27   0.0000       0.420387        11.4393    7-B2
  28   0.0000       0.420387        11.4393    7-B1
  29   0.0000       0.423749        11.5308   14-A1
  30   0.0000       0.423749        11.5308    3-A2
  31   0.0000       0.424201        11.5431   15-A1
  32   0.0000       0.432462        11.7679    8-B1
  33   0.0000       0.432462        11.7679    8-B2
  34   0.0000       0.453043        12.3279   16-A1
  35   0.0000       0.505461        13.7543   17-A1
  36   0.0000       0.695142        18.9158   18-A1
  37   0.0000       0.695142        18.9158    4-A2
  38   0.0000       0.701108        19.0781    9-B2
  39   0.0000       0.701108        19.0781    9-B1
  40   0.0000       0.717007        19.5108   19-A1
  41   0.0000       0.862489        23.4695   10-B2
  42   0.0000       0.862489        23.4695   10-B1
  43   0.0000       0.899624        24.4800   20-A1
  44   0.0000       0.931817        25.3560   11-B1
  45   0.0000       0.931817        25.3560   11-B2
  46   0.0000       0.966170        26.2908   21-A1
  47   0.0000       1.277364        34.7588   22-A1
  48   0.0000       1.285010        34.9669    5-A2
  49   0.0000       1.285010        34.9669   23-A1
  50   0.0000       1.292401        35.1680    6-A2
  51   0.0000       1.292401        35.1680   24-A1
  52   0.0000       1.293040        35.1854   12-B2
  53   0.0000       1.293040        35.1854   12-B1
  54   0.0000       1.299028        35.3483    7-A2
  55   0.0000       1.299028        35.3483   25-A1
  56   0.0000       1.302863        35.4527   13-B2
  57   0.0000       1.302863        35.4527   13-B1
  58   0.0000       1.304299        35.4918   14-B1
  59   0.0000       1.304299        35.4918   14-B2
  60   0.0000       1.305201        35.5163   26-A1
  61   0.0000       1.322482        35.9866   27-A1
  62   0.0000       1.338197        36.4142   15-B1
  63   0.0000       1.338197        36.4142   15-B2
  64   0.0000       1.348055        36.6824    8-A2
  65   0.0000       1.348055        36.6824   28-A1
  66   0.0000       1.355850        36.8945   16-B2
  67   0.0000       1.355850        36.8945   16-B1
  68   0.0000       1.380217        37.5576   29-A1
  69   0.0000       1.653296        44.9885   17-B2
  70   0.0000       1.653296        44.9885   17-B1
  71   0.0000       1.653372        44.9905   30-A1
  72   0.0000       1.653372        44.9905    9-A2
  73   0.0000       1.654567        45.0231   18-B1
  74   0.0000       1.654567        45.0231   18-B2
  75   0.0000       1.657626        45.1063   31-A1
  76   0.0000       1.731611        47.1195   32-A1
  77   0.0000       2.562040        69.7166   10-A2
  78   0.0000       2.562040        69.7166   33-A1
  79   0.0000       2.565327        69.8061   19-B2
  80   0.0000       2.565327        69.8061   19-B1
  81   0.0000       2.575485        70.0825   34-A1
  82   0.0000       2.679122        72.9026   20-B2
  83   0.0000       2.679122        72.9026   20-B1
  84   0.0000       2.722104        74.0722   35-A1
  85   0.0000       3.572327        97.2080   21-B1
  86   0.0000       3.572327        97.2080   21-B2
  87   0.0000       3.590859        97.7122   36-A1
  88   0.0000       3.791619       103.1752   11-A2
  89   0.0000       3.791619       103.1752   37-A1
  90   0.0000       3.800636       103.4206   12-A2
  91   0.0000       3.800636       103.4206   38-A1
  92   0.0000       3.801997       103.4576   22-B1
  93   0.0000       3.801997       103.4576   22-B2
  94   0.0000       3.809504       103.6619   13-A2
  95   0.0000       3.809504       103.6619   39-A1
  96   0.0000       3.813592       103.7731   23-B1
  97   0.0000       3.813592       103.7731   23-B2
  98   0.0000       3.814366       103.7942   24-B1
  99   0.0000       3.814366       103.7942   24-B2
 100   0.0000       3.816041       103.8398   40-A1
 101   0.0000       3.828180       104.1701   41-A1
 102   0.0000       3.942230       107.2735   25-B2
 103   0.0000       3.942230       107.2735   25-B1
 104   0.0000       3.953721       107.5862   14-A2
 105   0.0000       3.953721       107.5862   42-A1
 106   0.0000       3.961553       107.7993   26-B1
 107   0.0000       3.961553       107.7993   26-B2
 108   0.0000       3.974483       108.1512   43-A1
 109   0.0000       6.661375       181.2652   27-B1
 110   0.0000       6.661375       181.2652   27-B2
 111   0.0000       6.661539       181.2697   15-A2
 112   0.0000       6.661539       181.2697   44-A1
 113   0.0000       6.661933       181.2804   28-B1
 114   0.0000       6.661933       181.2804   28-B2
 115   0.0000       6.662726       181.3020   45-A1
 116   0.0000       7.515960       204.5197   46-A1
 117   0.0000       8.044352       218.8980   29-B2
 118   0.0000       8.044352       218.8980   29-B1
 119   0.0000       8.075771       219.7529   47-A1
 120   0.0000       8.497561       231.2304   16-A2
 121   0.0000       8.497561       231.2304   48-A1
 122   0.0000       8.499575       231.2852   30-B2
 123   0.0000       8.499575       231.2852   30-B1
 124   0.0000       8.508719       231.5340   49-A1
 125   0.0000      12.855588       349.8183   50-A1

                    ********************************
                    * MULLIKEN POPULATION ANALYSIS *
                    ********************************

-----------------------
MULLIKEN ATOMIC CHARGES
-----------------------
   0 B :    0.411087
   1 H :   -0.411087
Sum of atomic charges:    0.0000000

--------------------------------
MULLIKEN REDUCED ORBITAL CHARGES
--------------------------------
  0 B s       :     4.004671  s :     4.004671
      pz      :     0.578019  p :     0.578019
      px      :     0.000000
      py      :     0.000000
      dz2     :     0.006097  d :     0.006097
      dxz     :     0.000000
      dyz     :     0.000000
      dx2y2   :     0.000000
      dxy     :     0.000000
      f0      :     0.000126  f :     0.000126
      f+1     :     0.000000
      f-1     :     0.000000
      f+2     :     0.000000
      f-2     :     0.000000
      f+3     :     0.000000
      f-3     :     0.000000
      g0      :     0.000001  g :     0.000001
      g+1     :     0.000000
      g-1     :     0.000000
      g+2     :     0.000000
      g-2     :     0.000000
      g+3     :     0.000000
      g-3     :     0.000000
      g+4     :     0.000000
      g-4     :     0.000000
  1 H s       :     1.408183  s :     1.408183
      pz      :     0.002837  p :     0.002837
      px      :     0.000000
      py      :     0.000000
      dz2     :     0.000066  d :     0.000066
      dxz     :     0.000000
      dyz     :     0.000000
      dx2y2   :     0.000000
      dxy     :     0.000000
      f0      :     0.000001  f :     0.000001
      f+1     :     0.000000
      f-1     :     0.000000
      f+2     :     0.000000
      f-2     :     0.000000
      f+3     :     0.000000
      f-3     :     0.000000


                     *******************************
                     * LOEWDIN POPULATION ANALYSIS *
                     *******************************

----------------------
LOEWDIN ATOMIC CHARGES
----------------------
   0 B :    0.388409
   1 H :   -0.388409

-------------------------------
LOEWDIN REDUCED ORBITAL CHARGES
-------------------------------
  0 B s       :     4.003614  s :     4.003614
      pz      :     0.597561  p :     0.597561
      px      :     0.000000
      py      :     0.000000
      dz2     :     0.010126  d :     0.010126
      dxz     :     0.000000
      dyz     :     0.000000
      dx2y2   :     0.000000
      dxy     :     0.000000
      f0      :     0.000288  f :     0.000288
      f+1     :     0.000000
      f-1     :     0.000000
      f+2     :     0.000000
      f-2     :     0.000000
      f+3     :     0.000000
      f-3     :     0.000000
      g0      :     0.000002  g :     0.000002
      g+1     :     0.000000
      g-1     :     0.000000
      g+2     :     0.000000
      g-2     :     0.000000
      g+3     :     0.000000
      g-3     :     0.000000
      g+4     :     0.000000
      g-4     :     0.000000
  1 H s       :     1.386290  s :     1.386290
      pz      :     0.002039  p :     0.002039
      px      :     0.000000
      py      :     0.000000
      dz2     :     0.000078  d :     0.000078
      dxz     :     0.000000
      dyz     :     0.000000
      dx2y2   :     0.000000
      dxy     :     0.000000
      f0      :     0.000002  f :     0.000002
      f+1     :     0.000000
      f-1     :     0.000000
      f+2     :     0.000000
      f-2     :     0.000000
      f+3     :     0.000000
      f-3     :     0.000000


                      *****************************
                      * MAYER POPULATION ANALYSIS *
                      *****************************

  NA   - Mulliken gross atomic population
  ZA   - Total nuclear charge
  QA   - Mulliken gross atomic charge
  VA   - Mayer's total valence
  BVA  - Mayer's bonded valence
  FA   - Mayer's free valence

  ATOM       NA         ZA         QA         VA         BVA        FA
  0 B      4.5889     5.0000     0.4111     0.8310     0.8310     0.0000
  1 H      1.4111     1.0000    -0.4111     0.8310     0.8310    -0.0000

  Mayer bond orders larger than 0.100000
B(  0-B ,  1-H ) :   0.8310 

-------
TIMINGS
-------

Total SCF time: 0 days 0 hours 0 min 1 sec 

Total time                  ....       1.975 sec
Sum of individual times     ....       1.818 sec  ( 92.0%)

Fock matrix formation       ....       1.739 sec  ( 88.0%)
Diagonalization             ....       0.027 sec  (  1.4%)
Density matrix formation    ....       0.002 sec  (  0.1%)
Population analysis         ....       0.004 sec  (  0.2%)
Initial guess               ....       0.006 sec  (  0.3%)
Orbital Transformation      ....       0.000 sec  (  0.0%)
Orbital Orthonormalization  ....       0.000 sec  (  0.0%)
DIIS solution               ....       0.018 sec  (  0.9%)
SOSCF solution              ....       0.015 sec  (  0.8%)

Maximum memory used throughout the entire SCF-calculation: 228.4 MB
[cnode12:123763] 7 more processes have sent help message help-mpi-btl-openib.txt / error in device init
[cnode12:123763] Set MCA parameter "orte_base_help_aggregate" to 0 to see all help / error messages

-------------------------   --------------------
FINAL SINGLE POINT ENERGY       -24.867344451135
-------------------------   --------------------


                            ***************************************
                            *     ORCA property calculations      *
                            ***************************************

                                    ---------------------
                                    Active property flags
                                    ---------------------
   (+) Dipole Moment


------------------------------------------------------------------------------
                       ORCA ELECTRIC PROPERTIES CALCULATION
------------------------------------------------------------------------------

Dipole Moment Calculation                       ... on
Quadrupole Moment Calculation                   ... off
Polarizability Calculation                      ... off
GBWName                                         ... /scratch/BH-5.4-O_410/BH-5.4-O.gbw
Electron density file                           ... /scratch/BH-5.4-O_410/BH-5.4-O.scfp
The origin for moment calculation is the CENTER OF MASS  = ( 0.000000,  0.000000 -0.000000)

-------------
DIPOLE MOMENT
-------------
                                X             Y             Z
Electronic contribution:     -0.00000      -0.00000      -9.29411
Nuclear contribution   :      0.00000       0.00000       4.98224
                        -----------------------------------------
Total Dipole Moment    :     -0.00000      -0.00000      -4.31187
                        -----------------------------------------
Magnitude (a.u.)       :      4.31187
Magnitude (Debye)      :     10.95990



--------------------
Rotational spectrum 
--------------------
 
Rotational constants in cm-1:     0.000000     0.626999     0.626999 
Rotational constants in MHz :     0.000000 18796.969809 18796.969809 

 Dipole components along the rotational axes: 
x,y,z [a.u.] :    -4.311868    -0.000000    -0.000000 
x,y,z [Debye]:   -10.959898    -0.000000    -0.000000 

 
--------------------------------------------------------------------------
WARNING: There was an error initializing an OpenFabrics device.

  Local host:   cnode12
  Local device: mlx5_0
--------------------------------------------------------------------------
[cnode12:123831] 7 more processes have sent help message help-mpi-btl-openib.txt / error in device init
[cnode12:123831] Set MCA parameter "orte_base_help_aggregate" to 0 to see all help / error messages

Timings for individual modules:

Sum of individual times         ...        2.816 sec (=   0.047 min)
GTO integral calculation        ...        0.480 sec (=   0.008 min)  17.0 %
SCF iterations                  ...        2.336 sec (=   0.039 min)  83.0 %
                             ****ORCA TERMINATED NORMALLY****
TOTAL RUN TIME: 0 days 0 hours 0 minutes 3 seconds 248 msec

Sender: Unischeduler System <lcz@mgt01>
Subject: Job 133511: <#!/bin/bash
#BSUB -J intel
#BSUB -o BH-5.4-O.out
#BSUB -n 8
#BSUB -q cqueue
export LD_LIBRARY_PATH=/apps/software/openmpi-4.1.1/lib:/apps/software/orca_5_0_0:$LD_LIBRARY_PATH
export PATH=/apps/software/openmpi-4.1.1/bin:/apps/software/orca_5_0_0:$PATH
mkdir /scratch/BH-5.4-O_410
scp $USER@mgt01:/apps/users/lcz/exe13/RHF/BH-5.4-O.inp /scratch/BH-5.4-O_410
/apps/software/orca_5_0_0/orca /scratch/BH-5.4-O_410/BH-5.4-O.inp >& BH-5.4-O.out
scp /scratch/BH-5.4-O_410/*.gbw $USER@mgt01:/apps/users/lcz/exe13/RHF
scp /scratch/BH-5.4-O_410/*.xyz $USER@mgt01:/apps/users/lcz/exe13/RHF
scp /scratch/BH-5.4-O_410/*.trj $USER@mgt01:/apps/users/lcz/exe13/RHF> Exited

Job <#!/bin/bash
#BSUB -J intel
#BSUB -o BH-5.4-O.out
#BSUB -n 8
#BSUB -q cqueue
export LD_LIBRARY_PATH=/apps/software/openmpi-4.1.1/lib:/apps/software/orca_5_0_0:$LD_LIBRARY_PATH
export PATH=/apps/software/openmpi-4.1.1/bin:/apps/software/orca_5_0_0:$PATH
mkdir /scratch/BH-5.4-O_410
scp $USER@mgt01:/apps/users/lcz/exe13/RHF/BH-5.4-O.inp /scratch/BH-5.4-O_410
/apps/software/orca_5_0_0/orca /scratch/BH-5.4-O_410/BH-5.4-O.inp >& BH-5.4-O.out
scp /scratch/BH-5.4-O_410/*.gbw $USER@mgt01:/apps/users/lcz/exe13/RHF
scp /scratch/BH-5.4-O_410/*.xyz $USER@mgt01:/apps/users/lcz/exe13/RHF
scp /scratch/BH-5.4-O_410/*.trj $USER@mgt01:/apps/users/lcz/exe13/RHF> was submitted from host <mgt01> by user <lcz>.
Job was executed on host(s) <8*cnode12>, in queue <cqueue>, as user <lcz>.
</apps/users/lcz> was used as the home directory.
</apps/users/lcz/exe13/RHF> was used as the working directory.
Started at 2022-05-21 17:26:24
Results reported at 2022-05-21 17:26:29

Your job looked like:

------------------------------------------------------------
# User input
#!/bin/bash
#BSUB -J intel
#BSUB -o BH-5.4-O.out
#BSUB -n 8
#BSUB -q cqueue
export LD_LIBRARY_PATH=/apps/software/openmpi-4.1.1/lib:/apps/software/orca_5_0_0:$LD_LIBRARY_PATH
export PATH=/apps/software/openmpi-4.1.1/bin:/apps/software/orca_5_0_0:$PATH
mkdir /scratch/BH-5.4-O_410
scp $USER@mgt01:/apps/users/lcz/exe13/RHF/BH-5.4-O.inp /scratch/BH-5.4-O_410
/apps/software/orca_5_0_0/orca /scratch/BH-5.4-O_410/BH-5.4-O.inp >& BH-5.4-O.out
scp /scratch/BH-5.4-O_410/*.gbw $USER@mgt01:/apps/users/lcz/exe13/RHF
scp /scratch/BH-5.4-O_410/*.xyz $USER@mgt01:/apps/users/lcz/exe13/RHF
scp /scratch/BH-5.4-O_410/*.trj $USER@mgt01:/apps/users/lcz/exe13/RHF
------------------------------------------------------------

Exited with exit code 1.

Resource usage summary:

    CPU time   :            0.02 sec.
    Max Memory :                 8 MB
    Max Processes  :               2


The output (if any) follows:

/scratch/BH-5.4-O_410/*.xyz: No such file or directory
/scratch/BH-5.4-O_410/*.trj: No such file or directory
