
                                        *****************
                                        * O   R   C   A *
                                        *****************

                                            #,                                       
                                            ###                                      
                                            ####                                     
                                            #####                                    
                                            ######                                   
                                           ########,                                 
                                     ,,################,,,,,                         
                               ,,#################################,,                 
                          ,,##########################################,,             
                       ,#########################################, ''#####,          
                    ,#############################################,,   '####,        
                  ,##################################################,,,,####,       
                ,###########''''           ''''###############################       
              ,#####''   ,,,,##########,,,,          '''####'''          '####       
            ,##' ,,,,###########################,,,                        '##       
           ' ,,###''''                  '''############,,,                           
         ,,##''                                '''############,,,,        ,,,,,,###''
      ,#''                                            '''#######################'''  
     '                                                          ''''####''''         
             ,#######,   #######,   ,#######,      ##                                
            ,#'     '#,  ##    ##  ,#'     '#,    #''#        ######   ,####,        
            ##       ##  ##   ,#'  ##            #'  '#       #        #'  '#        
            ##       ##  #######   ##           ,######,      #####,   #    #        
            '#,     ,#'  ##    ##  '#,     ,#' ,#      #,         ##   #,  ,#        
             '#######'   ##     ##  '#######'  #'      '#     #####' # '####'        



                  #######################################################
                  #                        -***-                        #
                  #          Department of theory and spectroscopy      #
                  #    Directorship and core code : Frank Neese         #
                  #        Max Planck Institute fuer Kohlenforschung    #
                  #                Kaiser Wilhelm Platz 1               #
                  #                 D-45470 Muelheim/Ruhr               #
                  #                      Germany                        #
                  #                                                     #
                  #                  All rights reserved                #
                  #                        -***-                        #
                  #######################################################


                         Program Version 5.0.0 -  RELEASE  -
                                (SVN: $Rev: 19529$)
                ($Date: 2021-06-28 11:36:33 +0200 (Mo, 28 Jun 2021) $)


 With contributions from (in alphabetic order):
   Daniel Aravena         : Magnetic Suceptibility
   Michael Atanasov       : Ab Initio Ligand Field Theory (pilot matlab implementation)
   Alexander A. Auer      : GIAO ZORA, VPT2 properties, NMR spectrum
   Ute Becker             : Parallelization
   Giovanni Bistoni       : ED, misc. LED, open-shell LED, HFLD
   Martin Brehm           : Molecular dynamics
   Dmytro Bykov           : SCF Hessian
   Vijay G. Chilkuri      : MRCI spin determinant printing, contributions to CSF-ICE
   Dipayan Datta          : RHF DLPNO-CCSD density
   Achintya Kumar Dutta   : EOM-CC, STEOM-CC
   Dmitry Ganyushin       : Spin-Orbit,Spin-Spin,Magnetic field MRCI
   Miquel Garcia          : C-PCM Hessian, Gaussian charge scheme
   Yang Guo               : DLPNO-NEVPT2, F12-NEVPT2, CIM, IAO-localization
   Andreas Hansen         : Spin unrestricted coupled pair/coupled cluster methods
   Benjamin Helmich-Paris : MC-RPA, TRAH-SCF, COSX integrals
   Lee Huntington         : MR-EOM, pCC
   Robert Izsak           : Overlap fitted RIJCOSX, COSX-SCS-MP3, EOM
   Marcus Kettner         : VPT2
   Christian Kollmar      : KDIIS, OOCD, Brueckner-CCSD(T), CCSD density, CASPT2, CASPT2-K
   Simone Kossmann        : Meta GGA functionals, TD-DFT gradient, OOMP2, MP2 Hessian
   Martin Krupicka        : Initial AUTO-CI
   Lucas Lang             : DCDCAS
   Marvin Lechner         : AUTO-CI (C++ implementation), FIC-MRCC
   Dagmar Lenk            : GEPOL surface, SMD
   Dimitrios Liakos       : Extrapolation schemes; Compound Job, initial MDCI parallelization
   Dimitrios Manganas     : Further ROCIS development; embedding schemes
   Dimitrios Pantazis     : SARC Basis sets
   Anastasios Papadopoulos: AUTO-CI, single reference methods and gradients
   Taras Petrenko         : DFT Hessian,TD-DFT gradient, ASA, ECA, R-Raman, ABS, FL, XAS/XES, NRVS
   Peter Pinski           : DLPNO-MP2, DLPNO-MP2 Gradient
   Christoph Reimann      : Effective Core Potentials
   Marius Retegan         : Local ZFS, SOC
   Christoph Riplinger    : Optimizer, TS searches, QM/MM, DLPNO-CCSD(T), (RO)-DLPNO pert. Triples
   Tobias Risthaus        : Range-separated hybrids, TD-DFT gradient, RPA, STAB
   Michael Roemelt        : Original ROCIS implementation
   Masaaki Saitow         : Open-shell DLPNO-CCSD energy and density
   Barbara Sandhoefer     : DKH picture change effects
   Avijit Sen             : IP-ROCIS
   Kantharuban Sivalingam : CASSCF convergence, NEVPT2, FIC-MRCI
   Bernardo de Souza      : ESD, SOC TD-DFT
   Georgi Stoychev        : AutoAux, RI-MP2 NMR
   Willem Van den Heuvel  : Paramagnetic NMR
   Boris Wezisla          : Elementary symmetry handling
   Frank Wennmohs         : Technical directorship


 We gratefully acknowledge several colleagues who have allowed us to
 interface, adapt or use parts of their codes:
   Stefan Grimme, W. Hujo, H. Kruse, P. Pracht,  : VdW corrections, initial TS optimization,
                  C. Bannwarth, S. Ehlert          DFT functionals, gCP, sTDA/sTD-DF
   Ed Valeev, F. Pavosevic, A. Kumar             : LibInt (2-el integral package), F12 methods
   Garnet Chan, S. Sharma, J. Yang, R. Olivares  : DMRG
   Ulf Ekstrom                                   : XCFun DFT Library
   Mihaly Kallay                                 : mrcc  (arbitrary order and MRCC methods)
   Jiri Pittner, Ondrej Demel                    : Mk-CCSD
   Frank Weinhold                                : gennbo (NPA and NBO analysis)
   Christopher J. Cramer and Donald G. Truhlar   : smd solvation model
   Lars Goerigk                                  : TD-DFT with DH, B97 family of functionals
   V. Asgeirsson, H. Jonsson                     : NEB implementation
   FAccTs GmbH                                   : IRC, NEB, NEB-TS, DLPNO-Multilevel, CI-OPT
                                                   MM, QMMM, 2- and 3-layer-ONIOM, Crystal-QMMM,
                                                   LR-CPCM, SF, NACMEs, symmetry and pop. for TD-DFT,
                                                   nearIR, NL-DFT gradient (VV10), updates on ESD,
                                                   ML-optimized integration grids
   S Lehtola, MJT Oliveira, MAL Marques          : LibXC Library
   Liviu Ungur et al                             : ANISO software


 Your calculation uses the libint2 library for the computation of 2-el integrals
 For citations please refer to: http://libint.valeyev.net

 Your ORCA version has been built with support for libXC version: 5.1.0
 For citations please refer to: https://tddft.org/programs/libxc/

 This ORCA versions uses:
   CBLAS   interface :  Fast vector & matrix operations
   LAPACKE interface :  Fast linear algebra routines
   SCALAPACK package :  Parallel linear algebra routines
   Shared memory     :  Shared parallel matrices
   BLAS/LAPACK       :  OpenBLAS 0.3.15  USE64BITINT DYNAMIC_ARCH NO_AFFINITY SkylakeX SINGLE_THREADED
        Core in use  :  SkylakeX
   Copyright (c) 2011-2014, The OpenBLAS Project


================================================================================

----- Orbital basis set information -----
Your calculation utilizes the basis: cc-pVTZ 
       H, B-Ne : Obtained from the ccRepo (grant-hill.group.shef.ac.uk/ccrepo) Feb. 2017
                 T. H. Dunning, Jr., J. Chem. Phys. 90, 1007 (1989)
            He : Obtained from the ccRepo (grant-hill.group.shef.ac.uk/ccrepo) Feb. 2017
                 D. E. Woon, T. H. Dunning, Jr., J. Chem. Phys. 100, 2975 (1994)
  Li-Be, Na-Mg : Obtained from the ccRepo (grant-hill.group.shef.ac.uk/ccrepo) Feb. 2017
                 B. P. Prascher, D. E. Woon, K. A. Peterson, T. H. Dunning, Jr., A. K. Wilson, Theor. Chem. Acc. 128, 69 (2011)
         Al-Ar : Obtained from the ccRepo (grant-hill.group.shef.ac.uk/ccrepo) Feb. 2017
                 D. E. Woon, T. H. Dunning, Jr., J. Chem. Phys. 98, 1358 (1993)
            Ca : Obtained from the Peterson Research Group Website (tyr0.chem.wsu.edu/~kipeters) Feb. 2017
                 J. Koput, K. A. Peterson, J. Phys. Chem. 106, 9595 (2002)
         Sc-Zn : Obtained from the ccRepo (grant-hill.group.shef.ac.uk/ccrepo) Feb. 2017
                 N. B. Balabanov, K. A. Peterson, J. Chem. Phys. 123, 064107 (2005)
                 N. B. Balabanov, K. A. Peterson, J. Chem. Phys. 125, 074110 (2006)
         Ga-Kr : Obtained from the ccRepo (grant-hill.group.shef.ac.uk/ccrepo) Feb. 2017
                 A. K. Wilson, D. E. Woon, K. A. Peterson, T. H. Dunning, Jr., J. Chem. Phys. 110, 7667 (1999)
             Y : Obtained from the ccRepo (grant-hill.group.shef.ac.uk/ccrepo) Feb. 2017
                 K. A. Peterson, D. Figgen, M. Dolg, H. Stoll, J. Chem. Phys. 126, 124101 (2007)
        Ag, Au : Obtained from the Peterson Research Group Website (tyr0.chem.wsu.edu/~kipeters) Feb. 2017
                 K. A. Peterson, C. Puzzarini, Theor. Chem. Acc. 114, 283 (2005)

================================================================================
                                        WARNINGS
                       Please study these warnings very carefully!
================================================================================


INFO   : the flag for use of the SHARK integral package has been found!

================================================================================
                                       INPUT FILE
================================================================================
NAME = 3,8-dicl-dibenzene.inp
|  1> ! RKS B3LYP/G cc-pVTZ NoRI pal8            
|  2> 
|  3> *xyz 0 1
|  4>   C   -2.58160084178652      0.85828318402722      0.00080156853200
|  5>   C   -1.19423075211164      0.86536269424988      0.00098054343823
|  6>   C   -0.48184821662044      2.06241189554032      0.00026969425476
|  7>   C   -1.19416423453283      3.25950055784776     -0.00062846767782
|  8>   C   -2.58153392669185      3.26665691565461     -0.00081697160061
|  9>   C   -3.26678503079028      2.06248916662553      0.00011048883372
| 10>   H   -3.12770213250513     -0.07395399173453      0.00130680306569
| 11>   H   -0.65977525765669     -0.07535746059244      0.00163025822144
| 12>   H   -0.65965646486742      4.20019103552288     -0.00124317258025
| 13>   H   -3.12758341376550      4.19892427265791     -0.00156478051965
| 14>   C   1.01725661812022      2.06237059889130      0.00078164411047
| 15>   C   1.72979440054537      2.06154569389869     -1.19627740111421
| 16>   C   1.72939598080617      2.06315592590829      1.19791401450705
| 17>   C   3.11712542600413      2.06150240870885     -1.20321779640295
| 18>   H   1.19530943085168      2.06092784488391     -2.13697707431363
| 19>   C   3.11678391264014      2.06312227056329      1.20519298930278
| 20>   H   1.19468583944535      2.06380338066680      2.13849130201270
| 21>   C   3.80213032469577      2.06229337795585      0.00112229842861
| 22>   H   3.66351142389813      2.06086028564820     -2.13528741294019
| 23>   H   3.66287659702490      2.06373408667386      2.13743659617327
| 24>   Cl  -5.00747133311841      2.06253716373157     -0.00043793949156
| 25>   Cl  5.54284890041484      2.06224511267023      0.00136880576014
| 26> **                         ****END OF INPUT****
================================================================================

                       ****************************
                       * Single Point Calculation *
                       ****************************

---------------------------------
CARTESIAN COORDINATES (ANGSTROEM)
---------------------------------
  C     -2.581601    0.858283    0.000802
  C     -1.194231    0.865363    0.000981
  C     -0.481848    2.062412    0.000270
  C     -1.194164    3.259501   -0.000628
  C     -2.581534    3.266657   -0.000817
  C     -3.266785    2.062489    0.000110
  H     -3.127702   -0.073954    0.001307
  H     -0.659775   -0.075357    0.001630
  H     -0.659656    4.200191   -0.001243
  H     -3.127583    4.198924   -0.001565
  C      1.017257    2.062371    0.000782
  C      1.729794    2.061546   -1.196277
  C      1.729396    2.063156    1.197914
  C      3.117125    2.061502   -1.203218
  H      1.195309    2.060928   -2.136977
  C      3.116784    2.063122    1.205193
  H      1.194686    2.063803    2.138491
  C      3.802130    2.062293    0.001122
  H      3.663511    2.060860   -2.135287
  H      3.662877    2.063734    2.137437
  Cl    -5.007471    2.062537   -0.000438
  Cl     5.542849    2.062245    0.001369

----------------------------
CARTESIAN COORDINATES (A.U.)
----------------------------
  NO LB      ZA    FRAG     MASS         X           Y           Z
   0 C     6.0000    0    12.011   -4.878519    1.621920    0.001515
   1 C     6.0000    0    12.011   -2.256769    1.635298    0.001853
   2 C     6.0000    0    12.011   -0.910561    3.897394    0.000510
   3 C     6.0000    0    12.011   -2.256643    6.159563   -0.001188
   4 C     6.0000    0    12.011   -4.878392    6.173087   -0.001544
   5 C     6.0000    0    12.011   -6.173329    3.897540    0.000209
   6 H     1.0000    0     1.008   -5.910500   -0.139753    0.002469
   7 H     1.0000    0     1.008   -1.246795   -0.142405    0.003081
   8 H     1.0000    0     1.008   -1.246570    7.937211   -0.002349
   9 H     1.0000    0     1.008   -5.910276    7.934817   -0.002957
  10 C     6.0000    0    12.011    1.922336    3.897316    0.001477
  11 C     6.0000    0    12.011    3.268838    3.895757   -2.260637
  12 C     6.0000    0    12.011    3.268085    3.898800    2.263729
  13 C     6.0000    0    12.011    5.890513    3.895675   -2.273752
  14 H     1.0000    0     1.008    2.258807    3.894589   -4.038301
  15 C     6.0000    0    12.011    5.889868    3.898736    2.277485
  16 H     1.0000    0     1.008    2.257629    3.900023    4.041163
  17 C     6.0000    0    12.011    7.184985    3.897170    0.002121
  18 H     1.0000    0     1.008    6.923033    3.894462   -4.035108
  19 H     1.0000    0     1.008    6.921834    3.899892    4.039170
  20 Cl   17.0000    0    35.453   -9.462749    3.897630   -0.000828
  21 Cl   17.0000    0    35.453   10.474466    3.897078    0.002587

--------------------------------
INTERNAL COORDINATES (ANGSTROEM)
--------------------------------
 C      0   0   0     0.000000000000     0.00000000     0.00000000
 C      1   0   0     1.387388163861     0.00000000     0.00000000
 C      2   1   0     1.392988216924   121.04989152     0.00000000
 C      3   2   1     1.392988220156   118.48812661     0.00000000
 C      4   3   2     1.387388161875   121.04989154     0.00000000
 C      1   2   3     1.385492655692   119.34718420     0.00000000
 H      1   2   3     1.080413359256   120.65398330   179.99694789
 H      2   1   3     1.081941545283   119.31002859   180.00326978
 H      4   3   2     1.081941545779   119.64007972   180.00321480
 H      5   4   3     1.080413359083   120.65398334   180.00305082
 C      3   2   1     1.499104922726   120.75593635   179.98606200
 C     11   3   2     1.393076139199   120.74324109    90.00713163
 C     11   3   2     1.392935390058   120.76674798   270.00713421
 C     12  11   3     1.387348386369   121.04943886   180.00000382
 H     12  11   3     1.081938279073   119.63290808     0.00000000
 C     13  11   3     1.387407026797   121.04778269   179.99999879
 H     13  11   3     1.081943153887   119.63496366     0.00000000
 C     16  13  11     1.385455383693   119.34754392     0.00000000
 H     14  12  11     1.080412810498   120.66576870   179.99999648
 H     16  13  11     1.080414613382   120.66165217   179.99999852
 Cl     6   1   2     1.740686389385   119.64113672   179.98790317
 Cl    18  16  13     1.740718593842   119.64003156   180.00000209

---------------------------
INTERNAL COORDINATES (A.U.)
---------------------------
 C      0   0   0     0.000000000000     0.00000000     0.00000000
 C      1   0   0     2.621783671141     0.00000000     0.00000000
 C      2   1   0     2.632366237766   121.04989152     0.00000000
 C      3   2   1     2.632366243874   118.48812661     0.00000000
 C      4   3   2     2.621783667389   121.04989154     0.00000000
 C      1   2   3     2.618201679818   119.34718420     0.00000000
 H      1   2   3     2.041685360424   120.65398330   179.99694789
 H      2   1   3     2.044573213496   119.31002859   180.00326978
 H      4   3   2     2.044573214434   119.64007972   180.00321480
 H      5   4   3     2.041685360097   120.65398334   180.00305082
 C      3   2   1     2.832897749965   120.75593635   179.98606200
 C     11   3   2     2.632532386787   120.74324109    90.00713163
 C     11   3   2     2.632266409457   120.76674798   270.00713421
 C     12  11   3     2.621708502575   121.04943886   180.00000382
 H     12  11   3     2.044567041254   119.63290808     0.00000000
 C     13  11   3     2.621819316924   121.04778269   179.99999879
 H     13  11   3     2.044576253318   119.63496366     0.00000000
 C     16  13  11     2.618131245946   119.34754392     0.00000000
 H     14  12  11     2.041684323422   120.66576870   179.99999648
 H     16  13  11     2.041687730378   120.66165217   179.99999852
 Cl     6   1   2     3.289420560982   119.64113672   179.98790317
 Cl    18  16  13     3.289481418587   119.64003156   180.00000209

---------------------
BASIS SET INFORMATION
---------------------
There are 3 groups of distinct atoms

 Group   1 Type C   : 18s5p2d1f contracted to 4s3p2d1f pattern {8811/311/11/1}
 Group   2 Type H   : 5s2p1d contracted to 3s2p1d pattern {311/11/1}
 Group   3 Type Cl  : 41s16p2d1f contracted to 5s4p2d1f pattern {13131311/7711/11/1}

Atom   0C    basis set group =>   1
Atom   1C    basis set group =>   1
Atom   2C    basis set group =>   1
Atom   3C    basis set group =>   1
Atom   4C    basis set group =>   1
Atom   5C    basis set group =>   1
Atom   6H    basis set group =>   2
Atom   7H    basis set group =>   2
Atom   8H    basis set group =>   2
Atom   9H    basis set group =>   2
Atom  10C    basis set group =>   1
Atom  11C    basis set group =>   1
Atom  12C    basis set group =>   1
Atom  13C    basis set group =>   1
Atom  14H    basis set group =>   2
Atom  15C    basis set group =>   1
Atom  16H    basis set group =>   2
Atom  17C    basis set group =>   1
Atom  18H    basis set group =>   2
Atom  19H    basis set group =>   2
Atom  20Cl   basis set group =>   3
Atom  21Cl   basis set group =>   3
--------------------------------------------------------------------------
WARNING: There was an error initializing an OpenFabrics device.

  Local host:   cnode02
  Local device: mlx5_0
--------------------------------------------------------------------------


           ************************************************************
           *        Program running with 8 parallel MPI-processes     *
           *              working on a common directory               *
           ************************************************************
------------------------------------------------------------------------------
                           ORCA GTO INTEGRAL CALCULATION
------------------------------------------------------------------------------
------------------------------------------------------------------------------
                   ___                                                        
                  /   \      - P O W E R E D   B Y -                         
                 /     \                                                     
                 |  |  |   _    _      __       _____    __    __             
                 |  |  |  | |  | |    /  \     |  _  \  |  |  /  |          
                  \  \/   | |  | |   /    \    | | | |  |  | /  /          
                 / \  \   | |__| |  /  /\  \   | |_| |  |  |/  /          
                |  |  |   |  __  | /  /__\  \  |    /   |      \           
                |  |  |   | |  | | |   __   |  |    \   |  |\   \          
                \     /   | |  | | |  |  |  |  | |\  \  |  | \   \       
                 \___/    |_|  |_| |__|  |__|  |_| \__\ |__|  \__/        
                                                                              
                      - O R C A' S   B I G   F R I E N D -                    
                                      &                                       
                       - I N T E G R A L  F E E D E R -                       
                                                                              
 v1 FN, 2020, v2 2021                                                         
------------------------------------------------------------------------------


Reading SHARK input file 3,8-dicl-dibenzene.SHARKINP.tmp ... ok
----------------------
SHARK INTEGRAL PACKAGE
----------------------

Number of atoms                             ...     22
Number of basis functions                   ...    540
Number of shells                            ...    192
Maximum angular momentum                    ...      3
Integral batch strategy                     ... SHARK/LIBINT Hybrid
RI-J (if used) integral strategy            ... SPLIT-RIJ (Revised 2003 algorithm where possible)
Printlevel                                  ...      1
Contraction scheme used                     ... SEGMENTED contraction
Coulomb Range Separation                    ... NOT USED
Exchange Range Separation                   ... NOT USED
Finite Nucleus Model                        ... NOT USED
Auxiliary Coulomb fitting basis             ... NOT available
Auxiliary J/K fitting basis                 ... NOT available
Auxiliary Correlation fitting basis         ... NOT available
Auxiliary 'external' fitting basis          ... NOT available
Integral threshold                          ...     1.000000e-10
Primitive cut-off                           ...     1.000000e-11
Primitive pair pre-selection threshold      ...     1.000000e-11

Calculating pre-screening integrals         ... done (  0.4 sec) Dimension = 192
Organizing shell pair data                  ... done (  0.1 sec)
Shell pair information
Total number of shell pairs                 ...     18528
Shell pairs after pre-screening             ...     14774
Total number of primitive shell pairs       ...    124540
Primitive shell pairs kept                  ...     52891
          la=0 lb=0:   2789 shell pairs
          la=1 lb=0:   3996 shell pairs
          la=1 lb=1:   1475 shell pairs
          la=2 lb=0:   2342 shell pairs
          la=2 lb=1:   1696 shell pairs
          la=2 lb=2:    497 shell pairs
          la=3 lb=0:    896 shell pairs
          la=3 lb=1:    640 shell pairs
          la=3 lb=2:    364 shell pairs
          la=3 lb=3:     79 shell pairs

Calculating one electron integrals          ... done (  0.0 sec)
Calculating Nuclear repulsion               ... done (  0.0 sec) ENN=    927.544499064875 Eh

SHARK setup successfully completed in   0.6 seconds

Maximum memory used throughout the entire GTOINT-calculation: 46.8 MB
[cnode02:317404] 7 more processes have sent help message help-mpi-btl-openib.txt / error in device init
[cnode02:317404] Set MCA parameter "orte_base_help_aggregate" to 0 to see all help / error messages
--------------------------------------------------------------------------
WARNING: There was an error initializing an OpenFabrics device.

  Local host:   cnode02
  Local device: mlx5_0
--------------------------------------------------------------------------


           ************************************************************
           *        Program running with 8 parallel MPI-processes     *
           *              working on a common directory               *
           ************************************************************
-------------------------------------------------------------------------------
                                 ORCA SCF
-------------------------------------------------------------------------------

------------
SCF SETTINGS
------------
Hamiltonian:
 Density Functional     Method          .... DFT(GTOs)
 Exchange Functional    Exchange        .... B88
   X-Alpha parameter    XAlpha          ....  0.666667
   Becke's b parameter  XBeta           ....  0.004200
 Correlation Functional Correlation     .... LYP
 LDA part of GGA corr.  LDAOpt          .... VWN-3
 Gradients option       PostSCFGGA      .... off
 Hybrid DFT is turned on
   Fraction HF Exchange ScalHFX         ....  0.200000
   Scaling of DF-GGA-X  ScalDFX         ....  0.720000
   Scaling of DF-GGA-C  ScalDFC         ....  0.810000
   Scaling of DF-LDA-C  ScalLDAC        ....  1.000000
   Perturbative correction              ....  0.000000
   Density functional embedding theory  .... OFF
   NL short-range parameter             ....  4.800000


General Settings:
 Integral files         IntName         .... 3,8-dicl-dibenzene
 Hartree-Fock type      HFTyp           .... RHF
 Total Charge           Charge          ....    0
 Multiplicity           Mult            ....    1
 Number of Electrons    NEL             ....  114
 Basis Dimension        Dim             ....  540
 Nuclear Repulsion      ENuc            ....    927.5444990649 Eh

Convergence Acceleration:
 DIIS                   CNVDIIS         .... on
   Start iteration      DIISMaxIt       ....    12
   Startup error        DIISStart       ....  0.200000
   # of expansion vecs  DIISMaxEq       ....     5
   Bias factor          DIISBfac        ....   1.050
   Max. coefficient     DIISMaxC        ....  10.000
 Trust-Rad. Augm. Hess. CNVTRAH         .... auto
   Auto Start mean grad. ratio tolernc. ....  1.125000
   Auto Start start iteration           ....    20
   Auto Start num. interpolation iter.  ....    10
   Max. Number of Micro iterations      ....    16
   Max. Number of Macro iterations      .... Maxiter - #DIIS iter
   Number of Davidson start vectors     ....     2
   Converg. threshold I  (grad. norm)   ....   5.000e-05
   Converg. threshold II (energy diff.) ....   1.000e-06
   Grad. Scal. Fac. for Micro threshold ....   0.100
   Minimum threshold for Micro iter.    ....   0.010
   NR start threshold (gradient norm)   ....   0.001
   Initial trust radius                 ....   0.400
   Minimum AH scaling param. (alpha)    ....   1.000
   Maximum AH scaling param. (alpha)    .... 1000.000
   Orbital update algorithm             .... Taylor
   White noise on init. David. guess    .... on
   Maximum white noise                  ....   0.010
   Quad. conv. algorithm                .... NR
 SOSCF                  CNVSOSCF        .... on
   Start iteration      SOSCFMaxIt      ....   150
   Startup grad/error   SOSCFStart      ....  0.003300
 Level Shifting         CNVShift        .... on
   Level shift para.    LevelShift      ....    0.2500
   Turn off err/grad.   ShiftErr        ....    0.0010
 Zerner damping         CNVZerner       .... off
 Static damping         CNVDamp         .... on
   Fraction old density DampFac         ....    0.7000
   Max. Damping (<1)    DampMax         ....    0.9800
   Min. Damping (>=0)   DampMin         ....    0.0000
   Turn off err/grad.   DampErr         ....    0.1000
 Fernandez-Rico         CNVRico         .... off

SCF Procedure:
 Maximum # iterations   MaxIter         ....   125
 SCF integral mode      SCFMode         .... Direct
   Integral package                     .... SHARK and LIBINT hybrid scheme
 Reset frequency        DirectResetFreq ....    20
 Integral Threshold     Thresh          ....  1.000e-10 Eh
 Primitive CutOff       TCut            ....  1.000e-11 Eh

Convergence Tolerance:
 Convergence Check Mode ConvCheckMode   .... Total+1el-Energy
 Convergence forced     ConvForced      .... 0
 Energy Change          TolE            ....  1.000e-06 Eh
 1-El. energy change                    ....  1.000e-03 Eh
 Orbital Gradient       TolG            ....  5.000e-05
 Orbital Rotation angle TolX            ....  5.000e-05
 DIIS Error             TolErr          ....  1.000e-06


Diagonalization of the overlap matrix:
Smallest eigenvalue                        ... 3.049e-05
Time for diagonalization                   ...    0.034 sec
Threshold for overlap eigenvalues          ... 1.000e-08
Number of eigenvalues below threshold      ... 0
Time for construction of square roots      ...    0.054 sec
Total time needed                          ...    0.090 sec

Time for model grid setup =    0.121 sec

------------------------------
INITIAL GUESS: MODEL POTENTIAL
------------------------------
Loading Hartree-Fock densities                     ... done
Calculating cut-offs                               ... done
Initializing the effective Hamiltonian             ... done
Setting up the integral package (SHARK)            ... done
Starting the Coulomb interaction                   ... done (   0.2 sec)
Reading the grid                                   ... done
Mapping shells                                     ... done
Starting the XC term evaluation                    ... done (   0.1 sec)
  promolecular density results
     # of electrons  =    113.996469215
     EX              =   -119.169064650
     EC              =     -4.110592280
     EX+EC           =   -123.279656930
Transforming the Hamiltonian                       ... done (   0.0 sec)
Diagonalizing the Hamiltonian                      ... done (   0.0 sec)
Back transforming the eigenvectors                 ... done (   0.0 sec)
Now organizing SCF variables                       ... done
                      ------------------
                      INITIAL GUESS DONE (   0.5 sec)
                      ------------------
-------------------
DFT GRID GENERATION
-------------------

General Integration Accuracy     IntAcc      ... 4.388
Radial Grid Type                 RadialGrid  ... OptM3 with GC (2021)
Angular Grid (max. ang.)         AngularGrid ... 4 (Lebedev-302)
Angular grid pruning method      GridPruning ... 4 (adaptive)
Weight generation scheme         WeightScheme... Becke
Basis function cutoff            BFCut       ... 1.0000e-10
Integration weight cutoff        WCut        ... 1.0000e-14
Angular grids for H and He will be reduced by one unit
Partially contracted basis set               ... off
Rotationally invariant grid construction     ... off

Total number of grid points                  ...   112004
Total number of batches                      ...     1762
Average number of points per batch           ...       63
Average number of grid points per atom       ...     5091
Time for grid setup =    0.568 sec

--------------
SCF ITERATIONS
--------------
ITER       Energy         Delta-E        Max-DP      RMS-DP      [F,P]     Damp
               ***  Starting incremental Fock matrix formation  ***
[cnode02:317489] 7 more processes have sent help message help-mpi-btl-openib.txt / error in device init
[cnode02:317489] Set MCA parameter "orte_base_help_aggregate" to 0 to see all help / error messages
  0  -1382.4390408493   0.000000000000 0.01963250  0.00047086  0.1358982 0.7000
  1  -1382.5695468873  -0.130506038018 0.01253499  0.00037149  0.0756501 0.7000
                               ***Turning on DIIS***
  2  -1382.6247065252  -0.055159637925 0.03363328  0.00071049  0.0341697 0.0000
  3  -1382.7025150077  -0.077808482509 0.01144804  0.00029779  0.0399391 0.0000
  4  -1382.7250671982  -0.022552190497 0.00672353  0.00010297  0.0071957 0.0000
                      *** Initiating the SOSCF procedure ***
                           *** Shutting down DIIS ***
                      *** Re-Reading the Fockian *** 
                      *** Removing any level shift *** 
ITER      Energy       Delta-E        Grad      Rot      Max-DP    RMS-DP
  5  -1382.72608650  -0.0010193059  0.000993  0.000993  0.001693  0.000038
               *** Restarting incremental Fock matrix formation ***
  6  -1382.72614385  -0.0000573457  0.000414  0.001731  0.001674  0.000029
  7  -1382.72613115   0.0000126961  0.000982  0.001310  0.000561  0.000010
  8  -1382.72615209  -0.0000209339  0.000132  0.000459  0.000393  0.000006
  9  -1382.72615188   0.0000002084  0.000129  0.000242  0.000153  0.000003
 10  -1382.72615264  -0.0000007583  0.000013  0.000021  0.000068  0.000001
 11  -1382.72615265  -0.0000000149  0.000013  0.000010  0.000054  0.000001
                 **** Energy Check signals convergence ****
              ***Rediagonalizing the Fockian in SOSCF/NRSCF***

               *****************************************************
               *                     SUCCESS                       *
               *           SCF CONVERGED AFTER  12 CYCLES          *
               *****************************************************


----------------
TOTAL SCF ENERGY
----------------

Total Energy       :        -1382.72615267 Eh          -37625.89148 eV

Components:
Nuclear Repulsion  :          927.54449906 Eh           25239.76898 eV
Electronic Energy  :        -2310.27065174 Eh          -62865.66046 eV
One Electron Energy:        -3736.59414035 Eh         -101677.89576 eV
Two Electron Energy:         1426.32348861 Eh           38812.23530 eV

Virial components:
Potential Energy   :        -2759.92751276 Eh          -75101.44571 eV
Kinetic Energy     :         1377.20136009 Eh           37475.55423 eV
Virial Ratio       :            2.00401161


DFT components:
N(Alpha)           :       57.000031312787 electrons
N(Beta)            :       57.000031312787 electrons
N(Total)           :      114.000062625575 electrons
E(X)               :      -95.421733509066 Eh       
E(C)               :       -5.263829105404 Eh       
E(XC)              :     -100.685562614470 Eh       
DFET-embed. en.    :        0.000000000000 Eh       

---------------
SCF CONVERGENCE
---------------

  Last Energy change         ...   -2.1712e-08  Tolerance :   1.0000e-06
  Last MAX-Density change    ...    7.9572e-05  Tolerance :   1.0000e-05
  Last RMS-Density change    ...    7.7994e-07  Tolerance :   1.0000e-06
  Last Orbital Gradient      ...    8.6135e-07  Tolerance :   5.0000e-05
  Last Orbital Rotation      ...    2.1249e-06  Tolerance :   5.0000e-05

             **** THE GBW FILE WAS UPDATED (3,8-dicl-dibenzene.gbw) ****
             **** DENSITY 3,8-dicl-dibenzene.scfp WAS UPDATED ****
             **** ENERGY FILE WAS UPDATED (3,8-dicl-dibenzene.en.tmp) ****
             **** THE GBW FILE WAS UPDATED (3,8-dicl-dibenzene.gbw) ****
             **** DENSITY 3,8-dicl-dibenzene.scfp WAS UPDATED ****
----------------
ORBITAL ENERGIES
----------------

  NO   OCC          E(Eh)            E(eV) 
   0   2.0000    -101.565382     -2763.7346 
   1   2.0000    -101.565379     -2763.7345 
   2   2.0000     -10.246299      -278.8160 
   3   2.0000     -10.246295      -278.8159 
   4   2.0000     -10.203727      -277.6575 
   5   2.0000     -10.203442      -277.6498 
   6   2.0000     -10.196727      -277.4670 
   7   2.0000     -10.196726      -277.4670 
   8   2.0000     -10.196709      -277.4666 
   9   2.0000     -10.196705      -277.4665 
  10   2.0000     -10.195597      -277.4363 
  11   2.0000     -10.195594      -277.4362 
  12   2.0000     -10.195583      -277.4359 
  13   2.0000     -10.195579      -277.4358 
  14   2.0000      -9.471014      -257.7194 
  15   2.0000      -9.471011      -257.7193 
  16   2.0000      -7.233976      -196.8465 
  17   2.0000      -7.233972      -196.8464 
  18   2.0000      -7.225342      -196.6115 
  19   2.0000      -7.225338      -196.6114 
  20   2.0000      -7.224930      -196.6003 
  21   2.0000      -7.224926      -196.6002 
  22   2.0000      -0.907402       -24.6917 
  23   2.0000      -0.901349       -24.5270 
  24   2.0000      -0.863095       -23.4860 
  25   2.0000      -0.839859       -22.8537 
  26   2.0000      -0.773329       -21.0433 
  27   2.0000      -0.770662       -20.9708 
  28   2.0000      -0.770659       -20.9707 
  29   2.0000      -0.720650       -19.6099 
  30   2.0000      -0.633543       -17.2396 
  31   2.0000      -0.633535       -17.2394 
  32   2.0000      -0.626873       -17.0581 
  33   2.0000      -0.594772       -16.1846 
  34   2.0000      -0.546671       -14.8757 
  35   2.0000      -0.506877       -13.7928 
  36   2.0000      -0.488430       -13.2908 
  37   2.0000      -0.488429       -13.2908 
  38   2.0000      -0.478812       -13.0291 
  39   2.0000      -0.466073       -12.6825 
  40   2.0000      -0.443723       -12.0743 
  41   2.0000      -0.443716       -12.0741 
  42   2.0000      -0.439499       -11.9594 
  43   2.0000      -0.408648       -11.1199 
  44   2.0000      -0.408647       -11.1198 
  45   2.0000      -0.401640       -10.9292 
  46   2.0000      -0.374525       -10.1913 
  47   2.0000      -0.374518       -10.1911 
  48   2.0000      -0.360151        -9.8002 
  49   2.0000      -0.341686        -9.2978 
  50   2.0000      -0.341682        -9.2976 
  51   2.0000      -0.320226        -8.7138 
  52   2.0000      -0.320226        -8.7138 
  53   2.0000      -0.280539        -7.6339 
  54   2.0000      -0.274696        -7.4749 
  55   2.0000      -0.256198        -6.9715 
  56   2.0000      -0.256196        -6.9714 
  57   0.0000      -0.041452        -1.1280 
  58   0.0000      -0.028160        -0.7663 
  59   0.0000      -0.028160        -0.7663 
  60   0.0000      -0.019363        -0.5269 
  61   0.0000       0.017392         0.4733 
  62   0.0000       0.017543         0.4774 
  63   0.0000       0.058744         1.5985 
  64   0.0000       0.064087         1.7439 
  65   0.0000       0.064092         1.7440 
  66   0.0000       0.064828         1.7641 
  67   0.0000       0.082518         2.2454 
  68   0.0000       0.089648         2.4394 
  69   0.0000       0.110274         3.0007 
  70   0.0000       0.110278         3.0008 
  71   0.0000       0.122851         3.3430 
  72   0.0000       0.122852         3.3430 
  73   0.0000       0.154761         4.2113 
  74   0.0000       0.159739         4.3467 
  75   0.0000       0.210588         5.7304 
  76   0.0000       0.210601         5.7307 
  77   0.0000       0.211246         5.7483 
  78   0.0000       0.215637         5.8678 
  79   0.0000       0.235008         6.3949 
  80   0.0000       0.251059         6.8317 
  81   0.0000       0.251060         6.8317 
  82   0.0000       0.258211         7.0263 
  83   0.0000       0.261469         7.1149 
  84   0.0000       0.261471         7.1150 
  85   0.0000       0.272557         7.4167 
  86   0.0000       0.275632         7.5003 
  87   0.0000       0.284556         7.7432 
  88   0.0000       0.293800         7.9947 
  89   0.0000       0.293804         7.9948 
  90   0.0000       0.295947         8.0531 
  91   0.0000       0.314340         8.5536 
  92   0.0000       0.317289         8.6339 
  93   0.0000       0.317302         8.6342 
  94   0.0000       0.340526         9.2662 
  95   0.0000       0.341962         9.3053 
  96   0.0000       0.351079         9.5534 
  97   0.0000       0.351086         9.5535 
  98   0.0000       0.353489         9.6189 
  99   0.0000       0.353492         9.6190 
 100   0.0000       0.354583         9.6487 
 101   0.0000       0.367678        10.0050 
 102   0.0000       0.367681        10.0051 
 103   0.0000       0.370213        10.0740 
 104   0.0000       0.377468        10.2714 
 105   0.0000       0.377474        10.2716 
 106   0.0000       0.377953        10.2846 
 107   0.0000       0.385365        10.4863 
 108   0.0000       0.392093        10.6694 
 109   0.0000       0.397083        10.8052 
 110   0.0000       0.412481        11.2242 
 111   0.0000       0.421663        11.4740 
 112   0.0000       0.421667        11.4741 
 113   0.0000       0.431913        11.7529 
 114   0.0000       0.437874        11.9151 
 115   0.0000       0.452272        12.3070 
 116   0.0000       0.452282        12.3072 
 117   0.0000       0.455663        12.3992 
 118   0.0000       0.462235        12.5781 
 119   0.0000       0.473188        12.8761 
 120   0.0000       0.473192        12.8762 
 121   0.0000       0.480736        13.0815 
 122   0.0000       0.493831        13.4378 
 123   0.0000       0.494886        13.4665 
 124   0.0000       0.494894        13.4667 
 125   0.0000       0.508750        13.8438 
 126   0.0000       0.524889        14.2830 
 127   0.0000       0.524889        14.2830 
 128   0.0000       0.550557        14.9814 
 129   0.0000       0.590427        16.0663 
 130   0.0000       0.593464        16.1490 
 131   0.0000       0.593471        16.1492 
 132   0.0000       0.596170        16.2226 
 133   0.0000       0.605096        16.4655 
 134   0.0000       0.605099        16.4656 
 135   0.0000       0.619978        16.8705 
 136   0.0000       0.619983        16.8706 
 137   0.0000       0.623177        16.9575 
 138   0.0000       0.632902        17.2221 
 139   0.0000       0.650139        17.6912 
 140   0.0000       0.657739        17.8980 
 141   0.0000       0.659545        17.9471 
 142   0.0000       0.667806        18.1719 
 143   0.0000       0.684853        18.6358 
 144   0.0000       0.693891        18.8817 
 145   0.0000       0.720754        19.6127 
 146   0.0000       0.720756        19.6128 
 147   0.0000       0.730212        19.8701 
 148   0.0000       0.736184        20.0326 
 149   0.0000       0.736187        20.0327 
 150   0.0000       0.747422        20.3384 
 151   0.0000       0.752238        20.4694 
 152   0.0000       0.764917        20.8144 
 153   0.0000       0.764924        20.8147 
 154   0.0000       0.767217        20.8770 
 155   0.0000       0.767844        20.8941 
 156   0.0000       0.771596        20.9962 
 157   0.0000       0.799123        21.7452 
 158   0.0000       0.804548        21.8929 
 159   0.0000       0.804561        21.8932 
 160   0.0000       0.812241        22.1022 
 161   0.0000       0.824398        22.4330 
 162   0.0000       0.824407        22.4332 
 163   0.0000       0.828765        22.5518 
 164   0.0000       0.867056        23.5938 
 165   0.0000       0.867065        23.5941 
 166   0.0000       0.899176        24.4678 
 167   0.0000       0.902901        24.5692 
 168   0.0000       0.929289        25.2872 
 169   0.0000       0.939895        25.5759 
 170   0.0000       0.939908        25.5762 
 171   0.0000       0.940502        25.5924 
 172   0.0000       0.942150        25.6372 
 173   0.0000       0.951278        25.8856 
 174   0.0000       0.951283        25.8857 
 175   0.0000       0.997261        27.1368 
 176   0.0000       0.997285        27.1375 
 177   0.0000       1.004546        27.3351 
 178   0.0000       1.039488        28.2859 
 179   0.0000       1.050149        28.5760 
 180   0.0000       1.053945        28.6793 
 181   0.0000       1.073133        29.2014 
 182   0.0000       1.073557        29.2130 
 183   0.0000       1.073561        29.2131 
 184   0.0000       1.084746        29.5174 
 185   0.0000       1.110794        30.2262 
 186   0.0000       1.114517        30.3276 
 187   0.0000       1.115067        30.3425 
 188   0.0000       1.115073        30.3427 
 189   0.0000       1.147436        31.2233 
 190   0.0000       1.163368        31.6569 
 191   0.0000       1.172250        31.8986 
 192   0.0000       1.172269        31.8991 
 193   0.0000       1.225846        33.3570 
 194   0.0000       1.225882        33.3579 
 195   0.0000       1.238980        33.7144 
 196   0.0000       1.241438        33.7812 
 197   0.0000       1.252126        34.0721 
 198   0.0000       1.252166        34.0732 
 199   0.0000       1.255664        34.1683 
 200   0.0000       1.274639        34.6847 
 201   0.0000       1.297187        35.2983 
 202   0.0000       1.297194        35.2984 
 203   0.0000       1.305758        35.5315 
 204   0.0000       1.305775        35.5319 
 205   0.0000       1.315800        35.8047 
 206   0.0000       1.323066        36.0025 
 207   0.0000       1.331472        36.2312 
 208   0.0000       1.331475        36.2313 
 209   0.0000       1.348170        36.6856 
 210   0.0000       1.352215        36.7956 
 211   0.0000       1.362757        37.0825 
 212   0.0000       1.375442        37.4277 
 213   0.0000       1.383011        37.6336 
 214   0.0000       1.404081        38.2070 
 215   0.0000       1.404082        38.2070 
 216   0.0000       1.434906        39.0458 
 217   0.0000       1.434915        39.0460 
 218   0.0000       1.440284        39.1921 
 219   0.0000       1.477901        40.2157 
 220   0.0000       1.497654        40.7532 
 221   0.0000       1.508284        41.0425 
 222   0.0000       1.508297        41.0428 
 223   0.0000       1.549962        42.1766 
 224   0.0000       1.591971        43.3197 
 225   0.0000       1.595486        43.4154 
 226   0.0000       1.612647        43.8823 
 227   0.0000       1.612657        43.8826 
 228   0.0000       1.619267        44.0625 
 229   0.0000       1.622429        44.1485 
 230   0.0000       1.669439        45.4277 
 231   0.0000       1.696003        46.1506 
 232   0.0000       1.724645        46.9300 
 233   0.0000       1.724704        46.9316 
 234   0.0000       1.830046        49.7981 
 235   0.0000       1.836495        49.9736 
 236   0.0000       1.895531        51.5800 
 237   0.0000       1.896097        51.5954 
 238   0.0000       1.896207        51.5984 
 239   0.0000       1.896385        51.6033 
 240   0.0000       1.905330        51.8467 
 241   0.0000       1.905341        51.8470 
 242   0.0000       1.911723        52.0206 
 243   0.0000       1.911735        52.0210 
 244   0.0000       1.939562        52.7782 
 245   0.0000       1.940085        52.7924 
 246   0.0000       2.004299        54.5397 
 247   0.0000       2.019212        54.9455 
 248   0.0000       2.019220        54.9458 
 249   0.0000       2.023748        55.0690 
 250   0.0000       2.023766        55.0695 
 251   0.0000       2.029295        55.2199 
 252   0.0000       2.032427        55.3051 
 253   0.0000       2.038990        55.4837 
 254   0.0000       2.039809        55.5060 
 255   0.0000       2.074898        56.4608 
 256   0.0000       2.081348        56.6364 
 257   0.0000       2.081351        56.6364 
 258   0.0000       2.093276        56.9609 
 259   0.0000       2.098418        57.1009 
 260   0.0000       2.102299        57.2065 
 261   0.0000       2.102301        57.2065 
 262   0.0000       2.111695        57.4621 
 263   0.0000       2.111719        57.4628 
 264   0.0000       2.128649        57.9235 
 265   0.0000       2.129199        57.9384 
 266   0.0000       2.129217        57.9389 
 267   0.0000       2.134511        58.0830 
 268   0.0000       2.158766        58.7430 
 269   0.0000       2.166273        58.9473 
 270   0.0000       2.183243        59.4091 
 271   0.0000       2.217514        60.3416 
 272   0.0000       2.217514        60.3416 
 273   0.0000       2.243454        61.0475 
 274   0.0000       2.243478        61.0481 
 275   0.0000       2.265755        61.6543 
 276   0.0000       2.265757        61.6544 
 277   0.0000       2.278703        62.0067 
 278   0.0000       2.286711        62.2246 
 279   0.0000       2.311653        62.9033 
 280   0.0000       2.314041        62.9683 
 281   0.0000       2.314474        62.9800 
 282   0.0000       2.314479        62.9802 
 283   0.0000       2.326191        63.2989 
 284   0.0000       2.354711        64.0749 
 285   0.0000       2.354715        64.0750 
 286   0.0000       2.361605        64.2625 
 287   0.0000       2.363296        64.3085 
 288   0.0000       2.367744        64.4296 
 289   0.0000       2.403324        65.3978 
 290   0.0000       2.403346        65.3984 
 291   0.0000       2.405794        65.4650 
 292   0.0000       2.419641        65.8418 
 293   0.0000       2.450174        66.6726 
 294   0.0000       2.453854        66.7728 
 295   0.0000       2.453857        66.7728 
 296   0.0000       2.466391        67.1139 
 297   0.0000       2.491944        67.8092 
 298   0.0000       2.491969        67.8099 
 299   0.0000       2.513048        68.3835 
 300   0.0000       2.521740        68.6200 
 301   0.0000       2.521740        68.6200 
 302   0.0000       2.523865        68.6779 
 303   0.0000       2.558381        69.6171 
 304   0.0000       2.558391        69.6173 
 305   0.0000       2.562874        69.7394 
 306   0.0000       2.630629        71.5831 
 307   0.0000       2.634821        71.6971 
 308   0.0000       2.634842        71.6977 
 309   0.0000       2.648208        72.0614 
 310   0.0000       2.657536        72.3152 
 311   0.0000       2.677984        72.8717 
 312   0.0000       2.677992        72.8719 
 313   0.0000       2.702081        73.5274 
 314   0.0000       2.702105        73.5280 
 315   0.0000       2.719274        73.9952 
 316   0.0000       2.727409        74.2166 
 317   0.0000       2.733726        74.3885 
 318   0.0000       2.740136        74.5629 
 319   0.0000       2.744538        74.6827 
 320   0.0000       2.744545        74.6829 
 321   0.0000       2.777622        75.5829 
 322   0.0000       2.789183        75.8975 
 323   0.0000       2.789185        75.8976 
 324   0.0000       2.812366        76.5284 
 325   0.0000       2.831997        77.0626 
 326   0.0000       2.845798        77.4381 
 327   0.0000       2.845802        77.4382 
 328   0.0000       2.847872        77.4945 
 329   0.0000       2.867811        78.0371 
 330   0.0000       2.889295        78.6217 
 331   0.0000       2.889299        78.6218 
 332   0.0000       2.898522        78.8728 
 333   0.0000       2.915816        79.3434 
 334   0.0000       2.915835        79.3439 
 335   0.0000       2.936070        79.8945 
 336   0.0000       2.957471        80.4769 
 337   0.0000       2.959771        80.5395 
 338   0.0000       2.961405        80.5839 
 339   0.0000       2.980574        81.1055 
 340   0.0000       2.980600        81.1063 
 341   0.0000       3.004625        81.7600 
 342   0.0000       3.006310        81.8059 
 343   0.0000       3.006330        81.8064 
 344   0.0000       3.011794        81.9551 
 345   0.0000       3.030752        82.4710 
 346   0.0000       3.040718        82.7421 
 347   0.0000       3.040741        82.7428 
 348   0.0000       3.044232        82.8378 
 349   0.0000       3.045317        82.8673 
 350   0.0000       3.059773        83.2607 
 351   0.0000       3.064071        83.3776 
 352   0.0000       3.073231        83.6269 
 353   0.0000       3.073248        83.6273 
 354   0.0000       3.080775        83.8322 
 355   0.0000       3.093166        84.1693 
 356   0.0000       3.094148        84.1960 
 357   0.0000       3.094167        84.1966 
 358   0.0000       3.104724        84.4838 
 359   0.0000       3.128867        85.1408 
 360   0.0000       3.130554        85.1867 
 361   0.0000       3.171550        86.3023 
 362   0.0000       3.171563        86.3026 
 363   0.0000       3.175290        86.4040 
 364   0.0000       3.198748        87.0424 
 365   0.0000       3.205598        87.2288 
 366   0.0000       3.208170        87.2987 
 367   0.0000       3.208189        87.2993 
 368   0.0000       3.215458        87.4971 
 369   0.0000       3.215485        87.4978 
 370   0.0000       3.233930        87.9997 
 371   0.0000       3.239351        88.1472 
 372   0.0000       3.239355        88.1473 
 373   0.0000       3.273931        89.0882 
 374   0.0000       3.293124        89.6104 
 375   0.0000       3.301673        89.8431 
 376   0.0000       3.301706        89.8440 
 377   0.0000       3.312583        90.1400 
 378   0.0000       3.314351        90.1881 
 379   0.0000       3.314362        90.1884 
 380   0.0000       3.316434        90.2447 
 381   0.0000       3.351077        91.1874 
 382   0.0000       3.372698        91.7758 
 383   0.0000       3.372708        91.7760 
 384   0.0000       3.395754        92.4032 
 385   0.0000       3.396805        92.4318 
 386   0.0000       3.396835        92.4326 
 387   0.0000       3.408920        92.7614 
 388   0.0000       3.422482        93.1305 
 389   0.0000       3.446310        93.7789 
 390   0.0000       3.446321        93.7792 
 391   0.0000       3.497731        95.1781 
 392   0.0000       3.497757        95.1788 
 393   0.0000       3.497968        95.1845 
 394   0.0000       3.498859        95.2088 
 395   0.0000       3.498880        95.2094 
 396   0.0000       3.504648        95.3663 
 397   0.0000       3.535888        96.2164 
 398   0.0000       3.569298        97.1255 
 399   0.0000       3.569328        97.1264 
 400   0.0000       3.576584        97.3238 
 401   0.0000       3.590175        97.6936 
 402   0.0000       3.613270        98.3221 
 403   0.0000       3.650684        99.3402 
 404   0.0000       3.666945        99.7826 
 405   0.0000       3.673197        99.9528 
 406   0.0000       3.682269       100.1996 
 407   0.0000       3.701829       100.7319 
 408   0.0000       3.701846       100.7324 
 409   0.0000       3.733561       101.5954 
 410   0.0000       3.741095       101.8004 
 411   0.0000       3.741138       101.8015 
 412   0.0000       3.751168       102.0745 
 413   0.0000       3.763666       102.4146 
 414   0.0000       3.763674       102.4148 
 415   0.0000       3.773239       102.6750 
 416   0.0000       3.784873       102.9916 
 417   0.0000       3.784915       102.9928 
 418   0.0000       3.793561       103.2280 
 419   0.0000       3.793580       103.2286 
 420   0.0000       3.803991       103.5119 
 421   0.0000       3.834708       104.3477 
 422   0.0000       3.842074       104.5481 
 423   0.0000       3.867579       105.2422 
 424   0.0000       3.867601       105.2428 
 425   0.0000       3.867959       105.2525 
 426   0.0000       3.877130       105.5021 
 427   0.0000       3.926286       106.8397 
 428   0.0000       3.932162       106.9996 
 429   0.0000       3.932233       107.0015 
 430   0.0000       3.962480       107.8246 
 431   0.0000       3.978752       108.2673 
 432   0.0000       4.004617       108.9712 
 433   0.0000       4.015593       109.2698 
 434   0.0000       4.015618       109.2705 
 435   0.0000       4.054529       110.3293 
 436   0.0000       4.065745       110.6346 
 437   0.0000       4.065752       110.6347 
 438   0.0000       4.068980       110.7226 
 439   0.0000       4.076116       110.9167 
 440   0.0000       4.081335       111.0588 
 441   0.0000       4.081356       111.0593 
 442   0.0000       4.090213       111.3004 
 443   0.0000       4.106858       111.7533 
 444   0.0000       4.147632       112.8628 
 445   0.0000       4.147647       112.8632 
 446   0.0000       4.172643       113.5434 
 447   0.0000       4.187838       113.9569 
 448   0.0000       4.187849       113.9572 
 449   0.0000       4.211025       114.5878 
 450   0.0000       4.211944       114.6128 
 451   0.0000       4.222001       114.8865 
 452   0.0000       4.236416       115.2787 
 453   0.0000       4.236448       115.2796 
 454   0.0000       4.246450       115.5518 
 455   0.0000       4.281998       116.5191 
 456   0.0000       4.301128       117.0396 
 457   0.0000       4.305098       117.1477 
 458   0.0000       4.324003       117.6621 
 459   0.0000       4.332102       117.8825 
 460   0.0000       4.343255       118.1860 
 461   0.0000       4.343298       118.1872 
 462   0.0000       4.355063       118.5073 
 463   0.0000       4.358352       118.5968 
 464   0.0000       4.358396       118.5980 
 465   0.0000       4.361332       118.6779 
 466   0.0000       4.392645       119.5299 
 467   0.0000       4.392689       119.5312 
 468   0.0000       4.433110       120.6311 
 469   0.0000       4.467549       121.5682 
 470   0.0000       4.480061       121.9087 
 471   0.0000       4.480070       121.9089 
 472   0.0000       4.520116       122.9986 
 473   0.0000       4.556480       123.9881 
 474   0.0000       4.556504       123.9888 
 475   0.0000       4.602486       125.2400 
 476   0.0000       4.610264       125.4517 
 477   0.0000       4.680438       127.3612 
 478   0.0000       4.701018       127.9212 
 479   0.0000       4.701039       127.9218 
 480   0.0000       4.738125       128.9309 
 481   0.0000       4.738143       128.9314 
 482   0.0000       4.753937       129.3612 
 483   0.0000       4.754164       129.3674 
 484   0.0000       4.768555       129.7590 
 485   0.0000       4.768603       129.7603 
 486   0.0000       4.788980       130.3148 
 487   0.0000       4.808286       130.8401 
 488   0.0000       4.808330       130.8413 
 489   0.0000       4.868421       132.4765 
 490   0.0000       4.869438       132.5041 
 491   0.0000       4.888825       133.0317 
 492   0.0000       4.967533       135.1735 
 493   0.0000       4.994837       135.9164 
 494   0.0000       5.015405       136.4761 
 495   0.0000       5.019482       136.5871 
 496   0.0000       5.027328       136.8006 
 497   0.0000       5.027355       136.8013 
 498   0.0000       5.089565       138.4941 
 499   0.0000       5.113949       139.1576 
 500   0.0000       5.126197       139.4909 
 501   0.0000       5.126271       139.4929 
 502   0.0000       5.160164       140.4152 
 503   0.0000       5.160165       140.4152 
 504   0.0000       5.193546       141.3236 
 505   0.0000       5.253122       142.9447 
 506   0.0000       5.253149       142.9454 
 507   0.0000       5.420457       147.4981 
 508   0.0000       5.420502       147.4993 
 509   0.0000       5.469123       148.8224 
 510   0.0000       5.483677       149.2184 
 511   0.0000       5.525620       150.3598 
 512   0.0000       5.566260       151.4656 
 513   0.0000       5.673977       154.3968 
 514   0.0000       5.820219       158.3762 
 515   0.0000       5.835729       158.7983 
 516   0.0000       5.835747       158.7988 
 517   0.0000       5.915562       160.9706 
 518   0.0000       5.923814       161.1952 
 519   0.0000       5.923827       161.1955 
 520   0.0000       5.971297       162.4872 
 521   0.0000       5.971309       162.4876 
 522   0.0000       6.030577       164.1003 
 523   0.0000       6.051733       164.6760 
 524   0.0000       6.306728       171.6148 
 525   0.0000       6.343349       172.6113 
 526   0.0000       6.645346       180.8291 
 527   0.0000       6.645416       180.8310 
 528   0.0000       8.208827       223.3735 
 529   0.0000       8.854268       240.9369 
 530   0.0000      11.948596       325.1378 
 531   0.0000      12.065520       328.3195 
 532   0.0000      12.498629       340.1050 
 533   0.0000      12.786464       347.9374 
 534   0.0000      12.786477       347.9377 
 535   0.0000      13.082508       355.9931 
 536   0.0000      13.384571       364.2127 
 537   0.0000      13.384713       364.2166 
 538   0.0000      15.293462       416.1563 
 539   0.0000      15.431213       419.9047 

                    ********************************
                    * MULLIKEN POPULATION ANALYSIS *
                    ********************************

-----------------------
MULLIKEN ATOMIC CHARGES
-----------------------
   0 C :   -0.113167
   1 C :   -0.094479
   2 C :   -0.002226
   3 C :   -0.094477
   4 C :   -0.113178
   5 C :    0.069570
   6 H :    0.121945
   7 H :    0.112595
   8 H :    0.112594
   9 H :    0.121944
  10 C :   -0.002201
  11 C :   -0.094489
  12 C :   -0.094491
  13 C :   -0.113174
  14 H :    0.112595
  15 C :   -0.113182
  16 H :    0.112600
  17 C :    0.069598
  18 H :    0.121949
  19 H :    0.121946
  20 Cl:   -0.121127
  21 Cl:   -0.121146
Sum of atomic charges:   -0.0000000

--------------------------------
MULLIKEN REDUCED ORBITAL CHARGES
--------------------------------
  0 C s       :     3.248746  s :     3.248746
      pz      :     0.962610  p :     2.772602
      px      :     0.894756
      py      :     0.915236
      dz2     :     0.004992  d :     0.082665
      dxz     :     0.018211
      dyz     :     0.011998
      dx2y2   :     0.017653
      dxy     :     0.029812
      f0      :     0.001433  f :     0.009154
      f+1     :     0.000674
      f-1     :     0.000642
      f+2     :     0.001017
      f-2     :     0.000592
      f+3     :     0.001745
      f-3     :     0.003051
  1 C s       :     3.240004  s :     3.240004
      pz      :     0.957370  p :     2.767052
      px      :     0.869343
      py      :     0.940338
      dz2     :     0.004958  d :     0.078248
      dxz     :     0.019514
      dyz     :     0.010550
      dx2y2   :     0.018324
      dxy     :     0.024902
      f0      :     0.001372  f :     0.009175
      f+1     :     0.000662
      f-1     :     0.000610
      f+2     :     0.000997
      f-2     :     0.000596
      f+3     :     0.001685
      f-3     :     0.003251
  2 C s       :     3.175512  s :     3.175512
      pz      :     0.939267  p :     2.713536
      px      :     0.865448
      py      :     0.908821
      dz2     :     0.004566  d :     0.102189
      dxz     :     0.019024
      dyz     :     0.022533
      dx2y2   :     0.029491
      dxy     :     0.026574
      f0      :     0.001603  f :     0.010989
      f+1     :     0.001046
      f-1     :     0.000744
      f+2     :     0.000824
      f-2     :     0.001147
      f+3     :     0.001943
      f-3     :     0.003682
  3 C s       :     3.240005  s :     3.240005
      pz      :     0.957370  p :     2.767048
      px      :     0.869346
      py      :     0.940332
      dz2     :     0.004958  d :     0.078248
      dxz     :     0.019514
      dyz     :     0.010551
      dx2y2   :     0.018323
      dxy     :     0.024904
      f0      :     0.001372  f :     0.009175
      f+1     :     0.000662
      f-1     :     0.000610
      f+2     :     0.000997
      f-2     :     0.000596
      f+3     :     0.001685
      f-3     :     0.003251
  4 C s       :     3.248765  s :     3.248765
      pz      :     0.962610  p :     2.772595
      px      :     0.894747
      py      :     0.915238
      dz2     :     0.004991  d :     0.082665
      dxz     :     0.018212
      dyz     :     0.011997
      dx2y2   :     0.017655
      dxy     :     0.029810
      f0      :     0.001433  f :     0.009154
      f+1     :     0.000674
      f-1     :     0.000642
      f+2     :     0.001017
      f-2     :     0.000592
      f+3     :     0.001745
      f-3     :     0.003051
  5 C s       :     3.215673  s :     3.215673
      pz      :     0.989862  p :     2.554635
      px      :     0.679143
      py      :     0.885630
      dz2     :     0.005259  d :     0.148156
      dxz     :     0.027391
      dyz     :     0.025358
      dx2y2   :     0.050865
      dxy     :     0.039283
      f0      :     0.001913  f :     0.011966
      f+1     :     0.001121
      f-1     :     0.000817
      f+2     :     0.000989
      f-2     :     0.001147
      f+3     :     0.002006
      f-3     :     0.003974
  6 H s       :     0.843223  s :     0.843223
      pz      :     0.012453  p :     0.032072
      px      :     0.009602
      py      :     0.010017
      dz2     :     0.000144  d :     0.002760
      dxz     :     0.000230
      dyz     :     0.000604
      dx2y2   :     0.001166
      dxy     :     0.000617
  7 H s       :     0.852282  s :     0.852282
      pz      :     0.012201  p :     0.032389
      px      :     0.009981
      py      :     0.010206
      dz2     :     0.000139  d :     0.002734
      dxz     :     0.000217
      dyz     :     0.000607
      dx2y2   :     0.001108
      dxy     :     0.000663
  8 H s       :     0.852284  s :     0.852284
      pz      :     0.012201  p :     0.032389
      px      :     0.009981
      py      :     0.010206
      dz2     :     0.000139  d :     0.002734
      dxz     :     0.000217
      dyz     :     0.000607
      dx2y2   :     0.001108
      dxy     :     0.000663
  9 H s       :     0.843224  s :     0.843224
      pz      :     0.012453  p :     0.032072
      px      :     0.009602
      py      :     0.010017
      dz2     :     0.000144  d :     0.002760
      dxz     :     0.000230
      dyz     :     0.000604
      dx2y2   :     0.001166
      dxy     :     0.000617
 10 C s       :     3.175504  s :     3.175504
      pz      :     0.908810  p :     2.713522
      px      :     0.865447
      py      :     0.939265
      dz2     :     0.021586  d :     0.102186
      dxz     :     0.026573
      dyz     :     0.022533
      dx2y2   :     0.012470
      dxy     :     0.019024
      f0      :     0.002599  f :     0.010989
      f+1     :     0.001815
      f-1     :     0.001311
      f+2     :     0.001827
      f-2     :     0.001147
      f+3     :     0.001174
      f-3     :     0.001115
 11 C s       :     3.240030  s :     3.240030
      pz      :     0.940331  p :     2.767038
      px      :     0.869341
      py      :     0.957366
      dz2     :     0.015570  d :     0.078247
      dxz     :     0.024904
      dyz     :     0.010547
      dx2y2   :     0.007710
      dxy     :     0.019516
      f0      :     0.002062  f :     0.009175
      f+1     :     0.001542
      f-1     :     0.000779
      f+2     :     0.001799
      f-2     :     0.000596
      f+3     :     0.000806
      f-3     :     0.001590
 12 C s       :     3.240000  s :     3.240000
      pz      :     0.940326  p :     2.767062
      px      :     0.869359
      py      :     0.957377
      dz2     :     0.015573  d :     0.078254
      dxz     :     0.024908
      dyz     :     0.010553
      dx2y2   :     0.007708
      dxy     :     0.019512
      f0      :     0.002062  f :     0.009175
      f+1     :     0.001542
      f-1     :     0.000780
      f+2     :     0.001799
      f-2     :     0.000596
      f+3     :     0.000806
      f-3     :     0.001590
 13 C s       :     3.248739  s :     3.248739
      pz      :     0.915243  p :     2.772612
      px      :     0.894765
      py      :     0.962604
      dz2     :     0.015656  d :     0.082669
      dxz     :     0.029825
      dyz     :     0.011999
      dx2y2   :     0.006980
      dxy     :     0.018209
      f0      :     0.001923  f :     0.009154
      f+1     :     0.001624
      f-1     :     0.000882
      f+2     :     0.001771
      f-2     :     0.000592
      f+3     :     0.000794
      f-3     :     0.001569
 14 H s       :     0.852282  s :     0.852282
      pz      :     0.010208  p :     0.032389
      px      :     0.009980
      py      :     0.012201
      dz2     :     0.000952  d :     0.002734
      dxz     :     0.000663
      dyz     :     0.000607
      dx2y2   :     0.000295
      dxy     :     0.000217
 15 C s       :     3.248747  s :     3.248747
      pz      :     0.915267  p :     2.772613
      px      :     0.894735
      py      :     0.962612
      dz2     :     0.015668  d :     0.082668
      dxz     :     0.029808
      dyz     :     0.011996
      dx2y2   :     0.006982
      dxy     :     0.018214
      f0      :     0.001923  f :     0.009154
      f+1     :     0.001624
      f-1     :     0.000881
      f+2     :     0.001771
      f-2     :     0.000592
      f+3     :     0.000795
      f-3     :     0.001569
 16 H s       :     0.852279  s :     0.852279
      pz      :     0.010205  p :     0.032388
      px      :     0.009981
      py      :     0.012201
      dz2     :     0.000952  d :     0.002734
      dxz     :     0.000663
      dyz     :     0.000607
      dx2y2   :     0.000296
      dxy     :     0.000217
 17 C s       :     3.215649  s :     3.215649
      pz      :     0.885631  p :     2.554631
      px      :     0.679139
      py      :     0.989861
      dz2     :     0.034398  d :     0.148155
      dxz     :     0.039281
      dyz     :     0.025359
      dx2y2   :     0.021729
      dxy     :     0.027389
      f0      :     0.002834  f :     0.011966
      f+1     :     0.001778
      f-1     :     0.001477
      f+2     :     0.001957
      f-2     :     0.001147
      f+3     :     0.001348
      f-3     :     0.001425
 18 H s       :     0.843219  s :     0.843219
      pz      :     0.010019  p :     0.032072
      px      :     0.009600
      py      :     0.012452
      dz2     :     0.001010  d :     0.002760
      dxz     :     0.000616
      dyz     :     0.000604
      dx2y2   :     0.000300
      dxy     :     0.000230
 19 H s       :     0.843222  s :     0.843222
      pz      :     0.010017  p :     0.032072
      px      :     0.009602
      py      :     0.012453
      dz2     :     0.001010  d :     0.002760
      dxz     :     0.000617
      dyz     :     0.000604
      dx2y2   :     0.000300
      dxy     :     0.000230
 20 Cls       :     5.924145  s :     5.924145
      pz      :     3.920189  p :    11.135952
      px      :     3.247127
      py      :     3.968636
      dz2     :     0.006994  d :     0.055969
      dxz     :     0.017906
      dyz     :     0.000304
      dx2y2   :     0.020808
      dxy     :     0.009958
      f0      :     0.000535  f :     0.005060
      f+1     :     0.000953
      f-1     :     0.000081
      f+2     :     0.000780
      f-2     :     0.000025
      f+3     :     0.001672
      f-3     :     0.001013
 21 Cls       :     5.924151  s :     5.924151
      pz      :     3.968635  p :    11.135970
      px      :     3.247136
      py      :     3.920199
      dz2     :     0.007386  d :     0.055966
      dxz     :     0.009957
      dyz     :     0.000304
      dx2y2   :     0.020414
      dxy     :     0.017905
      f0      :     0.000396  f :     0.005060
      f+1     :     0.001041
      f-1     :     0.000063
      f+2     :     0.000699
      f-2     :     0.000025
      f+3     :     0.001584
      f-3     :     0.001252


                     *******************************
                     * LOEWDIN POPULATION ANALYSIS *
                     *******************************

----------------------
LOEWDIN ATOMIC CHARGES
----------------------
   0 C :    0.016195
   1 C :    0.049509
   2 C :   -0.039667
   3 C :    0.049509
   4 C :    0.016195
   5 C :   -0.297906
   6 H :   -0.023999
   7 H :   -0.021102
   8 H :   -0.021102
   9 H :   -0.023999
  10 C :   -0.039649
  11 C :    0.049524
  12 C :    0.049497
  13 C :    0.016189
  14 H :   -0.021108
  15 C :    0.016189
  16 H :   -0.021100
  17 C :   -0.297872
  18 H :   -0.024001
  19 H :   -0.023999
  20 Cl:    0.296366
  21 Cl:    0.296332

-------------------------------
LOEWDIN REDUCED ORBITAL CHARGES
-------------------------------
  0 C s       :     2.701838  s :     2.701838
      pz      :     0.847835  p :     2.830962
      px      :     1.005565
      py      :     0.977562
      dz2     :     0.028784  d :     0.406600
      dxz     :     0.063793
      dyz     :     0.034246
      dx2y2   :     0.121829
      dxy     :     0.157948
      f0      :     0.002462  f :     0.044407
      f+1     :     0.003744
      f-1     :     0.003419
      f+2     :     0.006415
      f-2     :     0.003889
      f+3     :     0.009358
      f-3     :     0.015118
  1 C s       :     2.696899  s :     2.696899
      pz      :     0.837538  p :     2.802263
      px      :     0.990566
      py      :     0.974159
      dz2     :     0.028092  d :     0.407542
      dxz     :     0.065217
      dyz     :     0.031250
      dx2y2   :     0.129026
      dxy     :     0.153957
      f0      :     0.002222  f :     0.043787
      f+1     :     0.003649
      f-1     :     0.003211
      f+2     :     0.006304
      f-2     :     0.003596
      f+3     :     0.009042
      f-3     :     0.015762
  2 C s       :     2.686885  s :     2.686885
      pz      :     0.826093  p :     2.785154
      px      :     0.940223
      py      :     1.018837
      dz2     :     0.034116  d :     0.511699
      dxz     :     0.063079
      dyz     :     0.077144
      dx2y2   :     0.176243
      dxy     :     0.161118
      f0      :     0.003700  f :     0.055929
      f+1     :     0.004239
      f-1     :     0.003876
      f+2     :     0.005277
      f-2     :     0.007508
      f+3     :     0.009729
      f-3     :     0.021601
  3 C s       :     2.696898  s :     2.696898
      pz      :     0.837538  p :     2.802263
      px      :     0.990565
      py      :     0.974160
      dz2     :     0.028092  d :     0.407542
      dxz     :     0.065214
      dyz     :     0.031253
      dx2y2   :     0.129021
      dxy     :     0.153962
      f0      :     0.002222  f :     0.043787
      f+1     :     0.003649
      f-1     :     0.003211
      f+2     :     0.006305
      f-2     :     0.003595
      f+3     :     0.009042
      f-3     :     0.015762
  4 C s       :     2.701838  s :     2.701838
      pz      :     0.847835  p :     2.830961
      px      :     1.005566
      py      :     0.977560
      dz2     :     0.028784  d :     0.406600
      dxz     :     0.063796
      dyz     :     0.034243
      dx2y2   :     0.121832
      dxy     :     0.157944
      f0      :     0.002462  f :     0.044407
      f+1     :     0.003744
      f-1     :     0.003419
      f+2     :     0.006415
      f-2     :     0.003890
      f+3     :     0.009358
      f-3     :     0.015118
  5 C s       :     2.749318  s :     2.749318
      pz      :     0.905696  p :     2.869928
      px      :     0.889855
      py      :     1.074377
      dz2     :     0.041935  d :     0.615913
      dxz     :     0.091134
      dyz     :     0.083154
      dx2y2   :     0.220319
      dxy     :     0.179370
      f0      :     0.004090  f :     0.062748
      f+1     :     0.005064
      f-1     :     0.004169
      f+2     :     0.006600
      f-2     :     0.007592
      f+3     :     0.011161
      f-3     :     0.024072
  6 H s       :     0.837415  s :     0.837415
      pz      :     0.043552  p :     0.157125
      px      :     0.046138
      py      :     0.067435
      dz2     :     0.002653  d :     0.029459
      dxz     :     0.002285
      dyz     :     0.006381
      dx2y2   :     0.009343
      dxy     :     0.008798
  7 H s       :     0.835680  s :     0.835680
      pz      :     0.043181  p :     0.156210
      px      :     0.045578
      py      :     0.067451
      dz2     :     0.002625  d :     0.029212
      dxz     :     0.002107
      dyz     :     0.006355
      dx2y2   :     0.009333
      dxy     :     0.008791
  8 H s       :     0.835680  s :     0.835680
      pz      :     0.043181  p :     0.156210
      px      :     0.045581
      py      :     0.067449
      dz2     :     0.002625  d :     0.029212
      dxz     :     0.002107
      dyz     :     0.006355
      dx2y2   :     0.009333
      dxy     :     0.008791
  9 H s       :     0.837415  s :     0.837415
      pz      :     0.043552  p :     0.157125
      px      :     0.046136
      py      :     0.067437
      dz2     :     0.002653  d :     0.029459
      dxz     :     0.002285
      dyz     :     0.006381
      dx2y2   :     0.009343
      dxy     :     0.008798
 10 C s       :     2.686891  s :     2.686891
      pz      :     1.018829  p :     2.785144
      px      :     0.940220
      py      :     0.826095
      dz2     :     0.139425  d :     0.511687
      dxz     :     0.161114
      dyz     :     0.077141
      dx2y2   :     0.070930
      dxy     :     0.063077
      f0      :     0.014927  f :     0.055927
      f+1     :     0.009742
      f-1     :     0.004406
      f+2     :     0.010549
      f-2     :     0.007507
      f+3     :     0.004225
      f-3     :     0.004571
 11 C s       :     2.696908  s :     2.696908
      pz      :     0.974136  p :     2.802260
      px      :     0.990587
      py      :     0.837537
      dz2     :     0.099152  d :     0.407525
      dxz     :     0.153961
      dyz     :     0.031239
      dx2y2   :     0.057953
      dxy     :     0.065221
      f0      :     0.010271  f :     0.043784
      f+1     :     0.008290
      f-1     :     0.003724
      f+2     :     0.008701
      f-2     :     0.003596
      f+3     :     0.004401
      f-3     :     0.004801
 12 C s       :     2.696894  s :     2.696894
      pz      :     0.974180  p :     2.802273
      px      :     0.990552
      py      :     0.837540
      dz2     :     0.099160  d :     0.407547
      dxz     :     0.153978
      dyz     :     0.031260
      dx2y2   :     0.057938
      dxy     :     0.065211
      f0      :     0.010274  f :     0.043789
      f+1     :     0.008292
      f-1     :     0.003727
      f+2     :     0.008700
      f-2     :     0.003595
      f+3     :     0.004400
      f-3     :     0.004801
 13 C s       :     2.701839  s :     2.701839
      pz      :     0.977554  p :     2.830964
      px      :     1.005581
      py      :     0.847829
      dz2     :     0.095151  d :     0.406601
      dxz     :     0.157975
      dyz     :     0.034253
      dx2y2   :     0.055437
      dxy     :     0.063786
      f0      :     0.009926  f :     0.044407
      f+1     :     0.008701
      f-1     :     0.004154
      f+2     :     0.008611
      f-2     :     0.003888
      f+3     :     0.004402
      f-3     :     0.004725
 14 H s       :     0.835683  s :     0.835683
      pz      :     0.067453  p :     0.156213
      px      :     0.045579
      py      :     0.043181
      dz2     :     0.009747  d :     0.029212
      dxz     :     0.008791
      dyz     :     0.006355
      dx2y2   :     0.002212
      dxy     :     0.002107
 15 C s       :     2.701834  s :     2.701834
      pz      :     0.977572  p :     2.830967
      px      :     1.005558
      py      :     0.847836
      dz2     :     0.095169  d :     0.406603
      dxz     :     0.157943
      dyz     :     0.034238
      dx2y2   :     0.055448
      dxy     :     0.063804
      f0      :     0.009925  f :     0.044408
      f+1     :     0.008701
      f-1     :     0.004151
      f+2     :     0.008612
      f-2     :     0.003892
      f+3     :     0.004402
      f-3     :     0.004725
 16 H s       :     0.835679  s :     0.835679
      pz      :     0.067442  p :     0.156209
      px      :     0.045587
      py      :     0.043180
      dz2     :     0.009744  d :     0.029211
      dxz     :     0.008791
      dyz     :     0.006353
      dx2y2   :     0.002213
      dxy     :     0.002109
 17 C s       :     2.749317  s :     2.749317
      pz      :     1.074379  p :     2.869905
      px      :     0.889830
      py      :     0.905696
      dz2     :     0.157867  d :     0.615902
      dxz     :     0.179361
      dyz     :     0.083158
      dx2y2   :     0.104391
      dxy     :     0.091125
      f0      :     0.016155  f :     0.062748
      f+1     :     0.010529
      f-1     :     0.004932
      f+2     :     0.012087
      f-2     :     0.007592
      f+3     :     0.005695
      f-3     :     0.005758
 18 H s       :     0.837417  s :     0.837417
      pz      :     0.067426  p :     0.157125
      px      :     0.046149
      py      :     0.043550
      dz2     :     0.009685  d :     0.029459
      dxz     :     0.008798
      dyz     :     0.006378
      dx2y2   :     0.002311
      dxy     :     0.002288
 19 H s       :     0.837414  s :     0.837414
      pz      :     0.067437  p :     0.157125
      px      :     0.046136
      py      :     0.043552
      dz2     :     0.009687  d :     0.029459
      dxz     :     0.008798
      dyz     :     0.006381
      dx2y2   :     0.002309
      dxy     :     0.002285
 20 Cls       :     5.639293  s :     5.639293
      pz      :     3.848671  p :    10.955198
      px      :     3.244347
      py      :     3.862180
      dz2     :     0.011641  d :     0.097598
      dxz     :     0.029677
      dyz     :     0.000277
      dx2y2   :     0.035587
      dxy     :     0.020416
      f0      :     0.001245  f :     0.011545
      f+1     :     0.001924
      f-1     :     0.000180
      f+2     :     0.001936
      f-2     :     0.000019
      f+3     :     0.003430
      f-3     :     0.002812
 21 Cls       :     5.639311  s :     5.639311
      pz      :     3.862188  p :    10.955224
      px      :     3.244349
      py      :     3.848688
      dz2     :     0.012505  d :     0.097589
      dxz     :     0.020413
      dyz     :     0.000277
      dx2y2   :     0.034720
      dxy     :     0.029674
      f0      :     0.001154  f :     0.011544
      f+1     :     0.002112
      f-1     :     0.000174
      f+2     :     0.001838
      f-2     :     0.000019
      f+3     :     0.003241
      f-3     :     0.003007


                      *****************************
                      * MAYER POPULATION ANALYSIS *
                      *****************************

  NA   - Mulliken gross atomic population
  ZA   - Total nuclear charge
  QA   - Mulliken gross atomic charge
  VA   - Mayer's total valence
  BVA  - Mayer's bonded valence
  FA   - Mayer's free valence

  ATOM       NA         ZA         QA         VA         BVA        FA
  0 C      6.1132     6.0000    -0.1132     3.8265     3.8265     0.0000
  1 C      6.0945     6.0000    -0.0945     3.8537     3.8537     0.0000
  2 C      6.0022     6.0000    -0.0022     3.8416     3.8416    -0.0000
  3 C      6.0945     6.0000    -0.0945     3.8537     3.8537    -0.0000
  4 C      6.1132     6.0000    -0.1132     3.8264     3.8264     0.0000
  5 C      5.9304     6.0000     0.0696     3.7995     3.7995    -0.0000
  6 H      0.8781     1.0000     0.1219     1.0029     1.0029     0.0000
  7 H      0.8874     1.0000     0.1126     1.0021     1.0021     0.0000
  8 H      0.8874     1.0000     0.1126     1.0021     1.0021     0.0000
  9 H      0.8781     1.0000     0.1219     1.0029     1.0029    -0.0000
 10 C      6.0022     6.0000    -0.0022     3.8416     3.8416    -0.0000
 11 C      6.0945     6.0000    -0.0945     3.8537     3.8537    -0.0000
 12 C      6.0945     6.0000    -0.0945     3.8537     3.8537    -0.0000
 13 C      6.1132     6.0000    -0.1132     3.8265     3.8265    -0.0000
 14 H      0.8874     1.0000     0.1126     1.0021     1.0021    -0.0000
 15 C      6.1132     6.0000    -0.1132     3.8265     3.8265    -0.0000
 16 H      0.8874     1.0000     0.1126     1.0021     1.0021    -0.0000
 17 C      5.9304     6.0000     0.0696     3.7995     3.7995    -0.0000
 18 H      0.8781     1.0000     0.1219     1.0029     1.0029    -0.0000
 19 H      0.8781     1.0000     0.1219     1.0029     1.0029    -0.0000
 20 Cl    17.1211    17.0000    -0.1211     1.1559     1.1559     0.0000
 21 Cl    17.1211    17.0000    -0.1211     1.1558     1.1558    -0.0000

  Mayer bond orders larger than 0.100000
B(  0-C ,  1-C ) :   1.3523 B(  0-C ,  5-C ) :   1.3304 B(  0-C ,  6-H ) :   0.9716 
B(  1-C ,  2-C ) :   1.3484 B(  1-C ,  7-H ) :   0.9749 B(  2-C ,  3-C ) :   1.3484 
B(  2-C , 10-C ) :   0.9885 B(  3-C ,  4-C ) :   1.3523 B(  3-C ,  8-H ) :   0.9749 
B(  4-C ,  5-C ) :   1.3304 B(  4-C ,  9-H ) :   0.9716 B(  5-C , 20-Cl) :   1.0160 
B( 10-C , 11-C ) :   1.3482 B( 10-C , 12-C ) :   1.3485 B( 11-C , 13-C ) :   1.3524 
B( 11-C , 14-H ) :   0.9749 B( 12-C , 15-C ) :   1.3522 B( 12-C , 16-H ) :   0.9749 
B( 13-C , 17-C ) :   1.3303 B( 13-C , 18-H ) :   0.9716 B( 15-C , 17-C ) :   1.3305 
B( 15-C , 19-H ) :   0.9716 B( 17-C , 21-Cl) :   1.0160 

-------
TIMINGS
-------

Total SCF time: 0 days 0 hours 3 min 19 sec 

Total time                  ....     199.949 sec
Sum of individual times     ....     199.246 sec  ( 99.6%)

Fock matrix formation       ....     197.283 sec  ( 98.7%)
  XC integration            ....       4.870 sec  (  2.5% of F)
    Basis function eval.    ....       1.483 sec  ( 30.5% of XC)
    Density eval.           ....       1.236 sec  ( 25.4% of XC)
    XC-Functional eval.     ....       0.162 sec  (  3.3% of XC)
    XC-Potential eval.      ....       1.553 sec  ( 31.9% of XC)
Diagonalization             ....       0.321 sec  (  0.2%)
Density matrix formation    ....       0.030 sec  (  0.0%)
Population analysis         ....       0.053 sec  (  0.0%)
Initial guess               ....       0.370 sec  (  0.2%)
Orbital Transformation      ....       0.000 sec  (  0.0%)
Orbital Orthonormalization  ....       0.000 sec  (  0.0%)
DIIS solution               ....       0.170 sec  (  0.1%)
SOSCF solution              ....       0.330 sec  (  0.2%)
Grid generation             ....       0.689 sec  (  0.3%)

Maximum memory used throughout the entire SCF-calculation: 267.1 MB

-------------------------   --------------------
FINAL SINGLE POINT ENERGY     -1382.726152674124
-------------------------   --------------------


                            ***************************************
                            *     ORCA property calculations      *
                            ***************************************

                                    ---------------------
                                    Active property flags
                                    ---------------------
   (+) Dipole Moment


------------------------------------------------------------------------------
                       ORCA ELECTRIC PROPERTIES CALCULATION
------------------------------------------------------------------------------

Dipole Moment Calculation                       ... on
Quadrupole Moment Calculation                   ... off
Polarizability Calculation                      ... off
GBWName                                         ... 3,8-dicl-dibenzene.gbw
Electron density file                           ... 3,8-dicl-dibenzene.scfp
The origin for moment calculation is the CENTER OF MASS  = ( 0.505866,  3.897355  0.000946)

-------------
DIPOLE MOMENT
-------------
                                X             Y             Z
Electronic contribution:     -0.00019      -0.00000       0.00008
Nuclear contribution   :      0.00013       0.00000      -0.00010
                        -----------------------------------------
Total Dipole Moment    :     -0.00007      -0.00000      -0.00002
                        -----------------------------------------
Magnitude (a.u.)       :      0.00007
Magnitude (Debye)      :      0.00017



--------------------
Rotational spectrum 
--------------------
 
Rotational constants in cm-1:     0.096140     0.005779     0.005779 
Rotational constants in MHz :  2882.207816   173.250355   173.250260 

 Dipole components along the rotational axes: 
x,y,z [a.u.] :    -0.000066    -0.000020     0.000000 
x,y,z [Debye]:    -0.000167    -0.000051     0.000001 

 
--------------------------------------------------------------------------
WARNING: There was an error initializing an OpenFabrics device.

  Local host:   cnode02
  Local device: mlx5_0
--------------------------------------------------------------------------
[cnode02:318048] 7 more processes have sent help message help-mpi-btl-openib.txt / error in device init
[cnode02:318048] Set MCA parameter "orte_base_help_aggregate" to 0 to see all help / error messages

Timings for individual modules:

Sum of individual times         ...      201.388 sec (=   3.356 min)
GTO integral calculation        ...        1.029 sec (=   0.017 min)   0.5 %
SCF iterations                  ...      200.359 sec (=   3.339 min)  99.5 %
                             ****ORCA TERMINATED NORMALLY****
TOTAL RUN TIME: 0 days 0 hours 3 minutes 21 seconds 996 msec

Sender: Unischeduler System <lcz@mgt01>
Subject: Job 127863: <#!/bin/bash
#BSUB -J intel
#BSUB -o 3,8-dicl-dibenzene.out
#BSUB -n 8
#BSUB -q cqueue
#BSUB -R span[hosts=1]
export LD_LIBRARY_PATH=/apps/software/openmpi-4.1.1/lib:/apps/software/orca_5_0_0:$LD_LIBRARY_PATH
export PATH=/apps/software/openmpi-4.1.1/bin:/apps/software/orca_5_0_0:$PATH
/apps/software/orca_5_0_0/orca 3,8-dicl-dibenzene.inp >& 3,8-dicl-dibenzene.out> Done

Job <#!/bin/bash
#BSUB -J intel
#BSUB -o 3,8-dicl-dibenzene.out
#BSUB -n 8
#BSUB -q cqueue
#BSUB -R span[hosts=1]
export LD_LIBRARY_PATH=/apps/software/openmpi-4.1.1/lib:/apps/software/orca_5_0_0:$LD_LIBRARY_PATH
export PATH=/apps/software/openmpi-4.1.1/bin:/apps/software/orca_5_0_0:$PATH
/apps/software/orca_5_0_0/orca 3,8-dicl-dibenzene.inp >& 3,8-dicl-dibenzene.out> was submitted from host <mgt01> by user <lcz>.
Job was executed on host(s) <8*cnode02>, in queue <cqueue>, as user <lcz>.
</apps/users/lcz> was used as the home directory.
</apps/users/lcz/task2/section2/isomer2/B3LYP_cc-pVTZ/ORCA> was used as the working directory.
Started at 2022-05-04 14:52:17
Results reported at 2022-05-04 14:55:39

Your job looked like:

------------------------------------------------------------
# User input
#!/bin/bash
#BSUB -J intel
#BSUB -o 3,8-dicl-dibenzene.out
#BSUB -n 8
#BSUB -q cqueue
#BSUB -R span[hosts=1]
export LD_LIBRARY_PATH=/apps/software/openmpi-4.1.1/lib:/apps/software/orca_5_0_0:$LD_LIBRARY_PATH
export PATH=/apps/software/openmpi-4.1.1/bin:/apps/software/orca_5_0_0:$PATH
/apps/software/orca_5_0_0/orca 3,8-dicl-dibenzene.inp >& 3,8-dicl-dibenzene.out
------------------------------------------------------------

Successfully completed.

Resource usage summary:

    CPU time   :         1531.84 sec.
    Max Memory :              1667 MB
    Max Processes  :              13


The output (if any) follows:

