 Entering Gaussian System, Link 0=/apps/software/g16/g16
 Initial command:
 /apps/software/g16/l1.exe "/scratch/Gau-184515.inp" -scrdir="/scratch/"
 Entering Link 1 = /apps/software/g16/l1.exe PID=    184516.
  
 Copyright (c) 1988,1990,1992,1993,1995,1998,2003,2009,2016,
            Gaussian, Inc.  All Rights Reserved.
  
 This is part of the Gaussian(R) 16 program.  It is based on
 the Gaussian(R) 09 system (copyright 2009, Gaussian, Inc.),
 the Gaussian(R) 03 system (copyright 2003, Gaussian, Inc.),
 the Gaussian(R) 98 system (copyright 1998, Gaussian, Inc.),
 the Gaussian(R) 94 system (copyright 1995, Gaussian, Inc.),
 the Gaussian 92(TM) system (copyright 1992, Gaussian, Inc.),
 the Gaussian 90(TM) system (copyright 1990, Gaussian, Inc.),
 the Gaussian 88(TM) system (copyright 1988, Gaussian, Inc.),
 the Gaussian 86(TM) system (copyright 1986, Carnegie Mellon
 University), and the Gaussian 82(TM) system (copyright 1983,
 Carnegie Mellon University). Gaussian is a federally registered
 trademark of Gaussian, Inc.
  
 This software contains proprietary and confidential information,
 including trade secrets, belonging to Gaussian, Inc.
  
 This software is provided under written license and may be
 used, copied, transmitted, or stored only in accord with that
 written license.
  
 The following legend is applicable only to US Government
 contracts under FAR:
  
                    RESTRICTED RIGHTS LEGEND
  
 Use, reproduction and disclosure by the US Government is
 subject to restrictions as set forth in subparagraphs (a)
 and (c) of the Commercial Computer Software - Restricted
 Rights clause in FAR 52.227-19.
  
 Gaussian, Inc.
 340 Quinnipiac St., Bldg. 40, Wallingford CT 06492
  
  
 ---------------------------------------------------------------
 Warning -- This program may not be used in any manner that
 competes with the business of Gaussian, Inc. or will provide
 assistance to any competitor of Gaussian, Inc.  The licensee
 of this program is prohibited from giving any competitor of
 Gaussian, Inc. access to this program.  By using this program,
 the user acknowledges that Gaussian, Inc. is engaged in the
 business of creating and licensing software in the field of
 computational chemistry and represents and warrants to the
 licensee that it is not a competitor of Gaussian, Inc. and that
 it will not use this program in any manner prohibited above.
 ---------------------------------------------------------------
  

 Cite this work as:
 Gaussian 16, Revision A.03,
 M. J. Frisch, G. W. Trucks, H. B. Schlegel, G. E. Scuseria, 
 M. A. Robb, J. R. Cheeseman, G. Scalmani, V. Barone, 
 G. A. Petersson, H. Nakatsuji, X. Li, M. Caricato, A. V. Marenich, 
 J. Bloino, B. G. Janesko, R. Gomperts, B. Mennucci, H. P. Hratchian, 
 J. V. Ortiz, A. F. Izmaylov, J. L. Sonnenberg, D. Williams-Young, 
 F. Ding, F. Lipparini, F. Egidi, J. Goings, B. Peng, A. Petrone, 
 T. Henderson, D. Ranasinghe, V. G. Zakrzewski, J. Gao, N. Rega, 
 G. Zheng, W. Liang, M. Hada, M. Ehara, K. Toyota, R. Fukuda, 
 J. Hasegawa, M. Ishida, T. Nakajima, Y. Honda, O. Kitao, H. Nakai, 
 T. Vreven, K. Throssell, J. A. Montgomery, Jr., J. E. Peralta, 
 F. Ogliaro, M. J. Bearpark, J. J. Heyd, E. N. Brothers, K. N. Kudin, 
 V. N. Staroverov, T. A. Keith, R. Kobayashi, J. Normand, 
 K. Raghavachari, A. P. Rendell, J. C. Burant, S. S. Iyengar, 
 J. Tomasi, M. Cossi, J. M. Millam, M. Klene, C. Adamo, R. Cammi, 
 J. W. Ochterski, R. L. Martin, K. Morokuma, O. Farkas, 
 J. B. Foresman, and D. J. Fox, Gaussian, Inc., Wallingford CT, 2016.
 
 ******************************************
 Gaussian 16:  ES64L-G16RevA.03 25-Dec-2016
                14-May-2022 
 ******************************************
 %nprocshared=16
 Will use up to   16 processors via shared memory.
 ----------------------------------
 #p B3LYP/Def2TZVP guess=mix stable
 ----------------------------------
 1/38=1,172=1/1;
 2/12=2,17=6,18=5,40=1/2;
 3/5=44,7=101,11=2,25=1,30=1,74=-5/1,2,3;
 4/13=-1/1;
 5/5=2,38=5/2;
 8/6=1,10=90,11=11/1;
 9/8=-1,42=1/14;
 6/7=2,8=2,9=2,10=2,28=1/1;
 99/5=1,9=1/99;
 Leave Link    1 at Sat May 14 11:14:52 2022, MaxMem=           0 cpu:               0.3 elap:               0.0
 (Enter /apps/software/g16/l101.exe)
 ------------
 [Fe(H2O)6]2+
 ------------
 Symbolic Z-matrix:
 Charge =  2 Multiplicity = 1
 Fe                   -0.64257   0.51804   0.11515 
 O                     0.11175   2.15027  -0.78003 
 H                     0.70767   2.71591  -0.25347 
 O                    -1.31194  -0.30254  -1.59154 
 H                    -1.93648   0.13093  -2.20091 
 O                     0.02721   1.33941   1.82123 
 H                     0.65259   0.90687   2.4304 
 O                    -1.39648  -1.11445   1.01024 
 H                    -1.99331  -1.6794    0.48397 
 O                    -2.28682   1.63341   0.41005 
 H                    -2.35377   2.47291  -0.08302 
 O                     1.00194  -0.59712  -0.1795 
 H                     1.06808  -1.43759   0.31203 
 H                    -3.18922   1.2728    0.48036 
 H                    -0.66522  -0.78352  -2.14179 
 H                     1.90455  -0.23678  -0.24845 
 H                     0.43777   2.17114  -1.69794 
 H                    -0.61876   1.82124   2.3716 
 H                    -1.72126  -1.13595   1.92857 
 
 ITRead=  0  0  0  0  0  0  0  0  0  0  0  0  0  0  0  0  0  0  0
 MicOpt= -1 -1 -1 -1 -1 -1 -1 -1 -1 -1 -1 -1 -1 -1 -1 -1 -1 -1 -1
 NAtoms=     19 NQM=       19 NQMF=       0 NMMI=      0 NMMIF=      0
                NMic=       0 NMicF=      0.
                    Isotopes and Nuclear Properties:
 (Nuclear quadrupole moments (NQMom) in fm**2, nuclear magnetic moments (NMagM)
  in nuclear magnetons)

  Atom         1           2           3           4           5           6           7           8           9          10
 IAtWgt=          56          16           1          16           1          16           1          16           1          16
 AtmWgt=  55.9349393  15.9949146   1.0078250  15.9949146   1.0078250  15.9949146   1.0078250  15.9949146   1.0078250  15.9949146
 NucSpn=           0           0           1           0           1           0           1           0           1           0
 AtZEff=  -0.0000000  -0.0000000  -0.0000000  -0.0000000  -0.0000000  -0.0000000  -0.0000000  -0.0000000  -0.0000000  -0.0000000
 NQMom=    0.0000000   0.0000000   0.0000000   0.0000000   0.0000000   0.0000000   0.0000000   0.0000000   0.0000000   0.0000000
 NMagM=    0.0000000   0.0000000   2.7928460   0.0000000   2.7928460   0.0000000   2.7928460   0.0000000   2.7928460   0.0000000
 AtZNuc=  26.0000000   8.0000000   1.0000000   8.0000000   1.0000000   8.0000000   1.0000000   8.0000000   1.0000000   8.0000000

  Atom        11          12          13          14          15          16          17          18          19
 IAtWgt=           1          16           1           1           1           1           1           1           1
 AtmWgt=   1.0078250  15.9949146   1.0078250   1.0078250   1.0078250   1.0078250   1.0078250   1.0078250   1.0078250
 NucSpn=           1           0           1           1           1           1           1           1           1
 AtZEff=  -0.0000000  -0.0000000  -0.0000000  -0.0000000  -0.0000000  -0.0000000  -0.0000000  -0.0000000  -0.0000000
 NQMom=    0.0000000   0.0000000   0.0000000   0.0000000   0.0000000   0.0000000   0.0000000   0.0000000   0.0000000
 NMagM=    2.7928460   0.0000000   2.7928460   2.7928460   2.7928460   2.7928460   2.7928460   2.7928460   2.7928460
 AtZNuc=   1.0000000   8.0000000   1.0000000   1.0000000   1.0000000   1.0000000   1.0000000   1.0000000   1.0000000
 Leave Link  101 at Sat May 14 11:14:52 2022, MaxMem=   104857600 cpu:               1.4 elap:               0.1
 (Enter /apps/software/g16/l202.exe)
                          Input orientation:                          
 ---------------------------------------------------------------------
 Center     Atomic      Atomic             Coordinates (Angstroms)
 Number     Number       Type             X           Y           Z
 ---------------------------------------------------------------------
      1         26           0       -0.642572    0.518039    0.115153
      2          8           0        0.111747    2.150274   -0.780033
      3          1           0        0.707668    2.715906   -0.253469
      4          8           0       -1.311938   -0.302544   -1.591540
      5          1           0       -1.936484    0.130931   -2.200908
      6          8           0        0.027209    1.339406    1.821227
      7          1           0        0.652588    0.906869    2.430403
      8          8           0       -1.396481   -1.114448    1.010239
      9          1           0       -1.993314   -1.679405    0.483975
     10          8           0       -2.286820    1.633408    0.410054
     11          1           0       -2.353770    2.472911   -0.083018
     12          8           0        1.001944   -0.597123   -0.179502
     13          1           0        1.068078   -1.437588    0.312025
     14          1           0       -3.189221    1.272802    0.480364
     15          1           0       -0.665220   -0.783520   -2.141795
     16          1           0        1.904546   -0.236783   -0.248450
     17          1           0        0.437767    2.171136   -1.697943
     18          1           0       -0.618756    1.821240    2.371599
     19          1           0       -1.721260   -1.135950    1.928569
 ---------------------------------------------------------------------
                    Distance matrix (angstroms):
                    1          2          3          4          5
     1  Fe   0.000000
     2  O    2.008617   0.000000
     3  H    2.605695   0.975875   0.000000
     4  O    2.008534   2.949871   3.870438   0.000000
     5  H    2.681081   3.208095   4.179253   0.974314   0.000000
     6  O    2.008467   2.726024   2.581112   4.017000   4.636169
     7  H    2.681233   3.485034   3.237100   4.636601   5.362314
     8  O    2.008625   4.017242   4.549287   2.726828   3.486264
     9  H    2.605627   4.549223   5.211323   2.582204   3.238694
    10  O    2.008623   2.727009   3.252541   2.950370   3.032704
    11  H    2.605570   2.582382   3.075793   3.326289   3.185035
    12  O    2.008691   2.949793   3.326896   2.726661   3.640124
    13  H    2.605678   3.870389   4.207279   3.252132   4.219298
    14  H    2.681132   3.640734   4.219811   3.209158   3.172135
    15  H    2.605452   3.326442   4.206731   0.975891   1.567108
    16  H    2.681376   3.032285   3.186051   3.486257   4.324444
    17  H    2.680891   0.974312   1.567204   3.031812   3.170563
    18  H    2.605849   3.251873   3.074216   4.549442   5.049887
    19  H    2.680994   4.636346   5.049532   3.640505   4.324799
                    6          7          8          9         10
     6  O    0.000000
     7  H    0.974311   0.000000
     8  O    2.950592   3.209559   0.000000
     9  H    3.870914   4.180692   0.975879   0.000000
    10  O    2.726276   3.640026   2.950194   3.326611   0.000000
    11  H    3.252698   4.219948   3.870498   4.206321   0.975893
    12  O    2.950113   3.032432   2.726820   3.253168   4.017314
    13  H    3.327581   3.186948   2.581854   3.075737   4.549282
    14  H    3.485365   4.323893   3.032103   3.185237   0.974324
    15  H    4.548825   5.049656   3.252626   3.075892   3.870796
    16  H    3.208166   3.170425   3.640244   4.220299   4.636680
    17  H    3.639353   4.322935   4.636138   5.049513   3.486571
    18  H    0.975881   1.567114   3.328125   4.207974   2.581739
    19  H    3.032499   3.171766   0.974307   1.567229   3.208597
                   11         12         13         14         15
    11  H    0.000000
    12  O    4.549201   0.000000
    13  H    5.211248   0.975886   0.000000
    14  H    1.567047   4.636584   5.049668   0.000000
    15  H    4.206436   2.581622   3.074632   4.180282   0.000000
    16  H    5.050056   0.974316   1.567082   5.362507   3.238421
    17  H    3.239094   3.207370   4.178536   4.325167   3.184898
    18  H    3.075726   3.870822   4.207994   3.238030   5.211300
    19  H    4.179764   3.485704   3.237994   3.170851   4.219868
                   16         17         18         19
    16  H    0.000000
    17  H    3.170260   0.000000
    18  H    4.179374   4.218986   0.000000
    19  H    4.323701   5.361884   3.186967   0.000000
 Stoichiometry    FeH12O6(2+)
 Framework group  C1[X(FeH12O6)]
 Deg. of freedom    51
 Full point group                 C1      NOp   1
 Largest Abelian subgroup         C1      NOp   1
 Largest concise Abelian subgroup C1      NOp   1
                         Standard orientation:                         
 ---------------------------------------------------------------------
 Center     Atomic      Atomic             Coordinates (Angstroms)
 Number     Number       Type             X           Y           Z
 ---------------------------------------------------------------------
      1         26           0        0.000065    0.000163   -0.000017
      2          8           0       -1.246719   -1.256779    0.948755
      3          1           0       -1.906773   -1.728539    0.406440
      4          8           0        1.248166    0.192856    1.561816
      5          1           0        0.978517    0.504619    2.444641
      6          8           0       -1.248574   -0.193244   -1.561244
      7          1           0       -0.979714   -0.505995   -2.443958
      8          8           0        1.247144    1.256732   -0.948912
      9          1           0        1.906411    1.729332   -0.406365
     10          8           0       -1.247341    1.449656    0.614407
     11          1           0       -1.905699    1.215874    1.295786
     12          8           0        1.247217   -1.449530   -0.614705
     13          1           0        1.906902   -1.215343   -1.294651
     14          1           0       -0.977458    2.370268    0.784533
     15          1           0        1.907641   -0.513331    1.698765
     16          1           0        0.977196   -2.369840   -0.786194
     17          1           0       -0.975734   -1.865439    1.659658
     18          1           0       -1.908858    0.512144   -1.698350
     19          1           0        0.976718    1.864477   -1.660803
 ---------------------------------------------------------------------
 Rotational constants (GHZ):           1.7156112           1.5579535           1.5576482
 Leave Link  202 at Sat May 14 11:14:52 2022, MaxMem=   104857600 cpu:               0.9 elap:               0.1
 (Enter /apps/software/g16/l301.exe)
 Standard basis: def2TZVP (5D, 7F)
 Ernie: Thresh=  0.10000D-02 Tol=  0.10000D-05 Strict=F.
 There are   340 symmetry adapted cartesian basis functions of A   symmetry.
 There are   303 symmetry adapted basis functions of A   symmetry.
   303 basis functions,   504 primitive gaussians,   340 cartesian basis functions
    42 alpha electrons       42 beta electrons
       nuclear repulsion energy       695.7934702665 Hartrees.
 IExCor=  402 DFT=T Ex+Corr=B3LYP ExCW=0 ScaHFX=  0.200000
 ScaDFX=  0.800000  0.720000  1.000000  0.810000 ScalE2=  1.000000  1.000000
 IRadAn=      5 IRanWt=     -1 IRanGd=            0 ICorTp=0 IEmpDi=  4
 NAtoms=   19 NActive=   19 NUniq=   19 SFac= 1.00D+00 NAtFMM=   60 NAOKFM=F Big=F
 Integral buffers will be    131072 words long.
 Raffenetti 2 integral format.
 Two-electron integral symmetry is turned on.
 Leave Link  301 at Sat May 14 11:14:52 2022, MaxMem=   104857600 cpu:               0.8 elap:               0.1
 (Enter /apps/software/g16/l302.exe)
 NPDir=0 NMtPBC=     1 NCelOv=     1 NCel=       1 NClECP=     1 NCelD=      1
         NCelK=      1 NCelE2=     1 NClLst=     1 CellRange=     0.0.
 One-electron integrals computed using PRISM.
 One-electron integral symmetry used in STVInt
 PrsmSu:  requested number of processors reduced to:  13 ShMem   1 Linda.
   1 Symmetry operations used in ECPInt.
 ECPInt:  NShTT=    8385 NPrTT=   26333 LenC2=    8206 LenP2D=   19816.
 LDataN:  DoStor=T MaxTD1= 6 Len=  172
 NBasis=   303 RedAO= T EigKep=  1.62D-03  NBF=   303
 NBsUse=   303 1.00D-06 EigRej= -1.00D+00 NBFU=   303
 Precomputing XC quadrature grid using
 IXCGrd= 4 IRadAn=           5 IRanWt=          -1 IRanGd=           0 AccXCQ= 0.00D+00.
 Generated NRdTot=       0 NPtTot=           0 NUsed=           0 NTot=          32
 NSgBfM=   337   337   337   337   337 MxSgAt=    19 MxSgA2=    19.
 Leave Link  302 at Sat May 14 11:14:52 2022, MaxMem=   104857600 cpu:               3.9 elap:               0.3
 (Enter /apps/software/g16/l303.exe)
 DipDrv:  MaxL=1.
 Leave Link  303 at Sat May 14 11:14:52 2022, MaxMem=   104857600 cpu:               0.6 elap:               0.1
 (Enter /apps/software/g16/l401.exe)
 ExpMin= 4.20D-02 ExpMax= 3.01D+05 ExpMxC= 2.91D+03 IAcc=3 IRadAn=         5 AccDes= 0.00D+00
 Harris functional with IExCor=  402 and IRadAn=       5 diagonalized for initial guess.
 HarFok:  IExCor=  402 AccDes= 0.00D+00 IRadAn=         5 IDoV= 1 UseB2=F ITyADJ=14
 ICtDFT=  3500011 ScaDFX=  1.000000  1.000000  1.000000  1.000000
 FoFCou: FMM=F IPFlag=           0 FMFlag=      100000 FMFlg1=           0
         NFxFlg=           0 DoJE=T BraDBF=F KetDBF=T FulRan=T
         wScrn=  0.000000 ICntrl=       500 IOpCl=  0 I1Cent=   200000004 NGrid=           0
         NMat0=    1 NMatS0=      1 NMatT0=    0 NMatD0=    1 NMtDS0=    0 NMtDT0=    0
 Petite list used in FoFCou.
 Harris En= -1722.35530389277    
 JPrj=0 DoOrth=F DoCkMO=T.
 Mixing orbitals, IMix= 1 IMixAn=  0 NRI=1 NE=   42 Coef=  7.07106781D-01  7.07106781D-01
 Leave Link  401 at Sat May 14 11:14:53 2022, MaxMem=   104857600 cpu:              10.6 elap:               0.7
 (Enter /apps/software/g16/l502.exe)
 Integral symmetry usage will be decided dynamically.
 Closed shell SCF:
 Using DIIS extrapolation, IDIIS=  1040.
 NGot=   104857600 LenX=   104617651 LenY=   104501610
 Requested convergence on RMS density matrix=1.00D-08 within 128 cycles.
 Requested convergence on MAX density matrix=1.00D-06.
 Requested convergence on             energy=1.00D-06.
 No special actions if energy rises.
 Fock matrices will be formed incrementally for  20 cycles.

 Cycle   1  Pass 1  IDiag  1:
 FoFJK:  IHMeth= 1 ICntrl=       0 DoSepK=F KAlg= 0 I1Cent=           0 FoldK=F
 IRaf= 950000000 NMat=       1 IRICut=       1 DoRegI=T DoRafI=F ISym2E= 0 IDoP0=0 IntGTp=1.
 FoFCou: FMM=F IPFlag=           0 FMFlag=      100000 FMFlg1=           0
         NFxFlg=           0 DoJE=F BraDBF=F KetDBF=F FulRan=T
         wScrn=  0.000000 ICntrl=         0 IOpCl=  0 I1Cent=           0 NGrid=           0
         NMat0=    1 NMatS0=      1 NMatT0=    0 NMatD0=    1 NMtDS0=    0 NMtDT0=    0
 Symmetry not used in FoFCou.
 E= -1721.64258141440    
 DIIS: error= 4.03D-02 at cycle   1 NSaved=   1.
 NSaved= 1 IEnMin= 1 EnMin= -1721.64258141440     IErMin= 1 ErrMin= 4.03D-02
 ErrMax= 4.03D-02  0.00D+00 EMaxC= 1.00D-01 BMatC= 5.28D-01 BMatP= 5.28D-01
 IDIUse=3 WtCom= 5.97D-01 WtEn= 4.03D-01
 Coeff-Com:  0.100D+01
 Coeff-En:   0.100D+01
 Coeff:      0.100D+01
 Gap=     0.092 Goal=   None    Shift=    0.000
 GapD=    0.092 DampG=0.500 DampE=0.250 DampFc=0.1250 IDamp=-1.
 Damping current iteration by 1.25D-01
 RMSDP=3.11D-03 MaxDP=1.01D-01              OVMax= 4.10D-01

 Cycle   2  Pass 1  IDiag  1:
 RMSU=  3.85D-04    CP:  9.96D-01
 E= -1721.72611389837     Delta-E=       -0.083532483962 Rises=F Damp=T
 DIIS: error= 2.71D-02 at cycle   2 NSaved=   2.
 NSaved= 2 IEnMin= 2 EnMin= -1721.72611389837     IErMin= 2 ErrMin= 2.71D-02
 ErrMax= 2.71D-02  0.00D+00 EMaxC= 1.00D-01 BMatC= 2.53D-01 BMatP= 5.28D-01
 IDIUse=3 WtCom= 7.29D-01 WtEn= 2.71D-01
 Coeff-Com: -0.208D+01 0.308D+01
 Coeff-En:   0.000D+00 0.100D+01
 Coeff:     -0.152D+01 0.252D+01
 Gap=     0.135 Goal=   None    Shift=    0.000
 RMSDP=1.75D-03 MaxDP=9.81D-02 DE=-8.35D-02 OVMax= 1.34D-01

 Cycle   3  Pass 1  IDiag  1:
 RMSU=  1.16D-03    CP:  9.81D-01  3.00D+00
 E= -1722.00049394353     Delta-E=       -0.274380045160 Rises=F Damp=F
 DIIS: error= 1.09D-02 at cycle   3 NSaved=   3.
 NSaved= 3 IEnMin= 3 EnMin= -1722.00049394353     IErMin= 3 ErrMin= 1.09D-02
 ErrMax= 1.09D-02  0.00D+00 EMaxC= 1.00D-01 BMatC= 5.71D-02 BMatP= 2.53D-01
 IDIUse=3 WtCom= 8.91D-01 WtEn= 1.09D-01
 Coeff-Com: -0.106D+01 0.167D+01 0.390D+00
 Coeff-En:   0.000D+00 0.000D+00 0.100D+01
 Coeff:     -0.947D+00 0.149D+01 0.456D+00
 Gap=     0.162 Goal=   None    Shift=    0.000
 RMSDP=6.61D-04 MaxDP=1.84D-02 DE=-2.74D-01 OVMax= 6.48D-02

 Cycle   4  Pass 1  IDiag  1:
 RMSU=  6.54D-04    CP:  9.84D-01  3.00D+00  9.26D-01
 E= -1722.03485136864     Delta-E=       -0.034357425112 Rises=F Damp=F
 DIIS: error= 4.68D-03 at cycle   4 NSaved=   4.
 NSaved= 4 IEnMin= 4 EnMin= -1722.03485136864     IErMin= 4 ErrMin= 4.68D-03
 ErrMax= 4.68D-03  0.00D+00 EMaxC= 1.00D-01 BMatC= 9.94D-03 BMatP= 5.71D-02
 IDIUse=3 WtCom= 9.53D-01 WtEn= 4.68D-02
 Coeff-Com: -0.288D+00 0.455D+00 0.263D+00 0.570D+00
 Coeff-En:   0.000D+00 0.000D+00 0.323D-02 0.997D+00
 Coeff:     -0.275D+00 0.433D+00 0.251D+00 0.590D+00
 Gap=     0.177 Goal=   None    Shift=    0.000
 RMSDP=2.85D-04 MaxDP=2.06D-02 DE=-3.44D-02 OVMax= 5.03D-02

 Cycle   5  Pass 1  IDiag  1:
 RMSU=  2.08D-04    CP:  9.81D-01  3.00D+00  1.09D+00  9.48D-01
 E= -1722.04452830575     Delta-E=       -0.009676937109 Rises=F Damp=F
 DIIS: error= 2.80D-03 at cycle   5 NSaved=   5.
 NSaved= 5 IEnMin= 5 EnMin= -1722.04452830575     IErMin= 5 ErrMin= 2.80D-03
 ErrMax= 2.80D-03  0.00D+00 EMaxC= 1.00D-01 BMatC= 1.23D-03 BMatP= 9.94D-03
 IDIUse=3 WtCom= 9.72D-01 WtEn= 2.80D-02
 Coeff-Com: -0.130D+00 0.151D+00-0.194D+00-0.103D+00 0.128D+01
 Coeff-En:   0.000D+00 0.000D+00 0.000D+00 0.000D+00 0.100D+01
 Coeff:     -0.127D+00 0.146D+00-0.188D+00-0.100D+00 0.127D+01
 Gap=     0.195 Goal=   None    Shift=    0.000
 RMSDP=2.90D-04 MaxDP=1.57D-02 DE=-9.68D-03 OVMax= 6.82D-02

 Cycle   6  Pass 1  IDiag  1:
 RMSU=  9.08D-05    CP:  9.79D-01  3.00D+00  1.18D+00  1.17D+00  1.98D+00
 E= -1722.04898719346     Delta-E=       -0.004458887715 Rises=F Damp=F
 DIIS: error= 1.50D-03 at cycle   6 NSaved=   6.
 NSaved= 6 IEnMin= 6 EnMin= -1722.04898719346     IErMin= 6 ErrMin= 1.50D-03
 ErrMax= 1.50D-03  0.00D+00 EMaxC= 1.00D-01 BMatC= 1.69D-04 BMatP= 1.23D-03
 IDIUse=3 WtCom= 9.85D-01 WtEn= 1.50D-02
 Coeff-Com: -0.456D-01 0.609D-01-0.298D-01-0.449D-01-0.251D-01 0.108D+01
 Coeff-En:   0.000D+00 0.000D+00 0.000D+00 0.000D+00 0.000D+00 0.100D+01
 Coeff:     -0.449D-01 0.600D-01-0.294D-01-0.442D-01-0.248D-01 0.108D+01
 Gap=     0.200 Goal=   None    Shift=    0.000
 RMSDP=1.50D-04 MaxDP=1.01D-02 DE=-4.46D-03 OVMax= 2.98D-02

 Cycle   7  Pass 1  IDiag  1:
 RMSU=  5.41D-05    CP:  9.78D-01  3.00D+00  1.21D+00  1.27D+00  2.47D+00
                    CP:  1.69D+00
 E= -1722.05023121418     Delta-E=       -0.001244020716 Rises=F Damp=F
 DIIS: error= 8.87D-04 at cycle   7 NSaved=   7.
 NSaved= 7 IEnMin= 7 EnMin= -1722.05023121418     IErMin= 7 ErrMin= 8.87D-04
 ErrMax= 8.87D-04  0.00D+00 EMaxC= 1.00D-01 BMatC= 1.20D-04 BMatP= 1.69D-04
 IDIUse=3 WtCom= 9.91D-01 WtEn= 8.87D-03
 Coeff-Com:  0.192D-01-0.193D-01 0.386D-01-0.261D-02-0.365D+00 0.646D+00
 Coeff-Com:  0.683D+00
 Coeff-En:   0.000D+00 0.000D+00 0.000D+00 0.000D+00 0.000D+00 0.000D+00
 Coeff-En:   0.100D+01
 Coeff:      0.190D-01-0.192D-01 0.383D-01-0.259D-02-0.362D+00 0.641D+00
 Coeff:      0.686D+00
 Gap=     0.202 Goal=   None    Shift=    0.000
 RMSDP=9.76D-05 MaxDP=6.97D-03 DE=-1.24D-03 OVMax= 1.98D-02

 Cycle   8  Pass 1  IDiag  1:
 RMSU=  2.77D-05    CP:  9.77D-01  3.00D+00  1.22D+00  1.31D+00  2.79D+00
                    CP:  2.27D+00  1.40D+00
 E= -1722.05082582622     Delta-E=       -0.000594612046 Rises=F Damp=F
 DIIS: error= 5.45D-04 at cycle   8 NSaved=   8.
 NSaved= 8 IEnMin= 8 EnMin= -1722.05082582622     IErMin= 8 ErrMin= 5.45D-04
 ErrMax= 5.45D-04  0.00D+00 EMaxC= 1.00D-01 BMatC= 2.99D-05 BMatP= 1.20D-04
 IDIUse=3 WtCom= 9.95D-01 WtEn= 5.45D-03
 Coeff-Com:  0.281D-01-0.343D-01 0.258D-01 0.379D-02-0.127D+00-0.236D-01
 Coeff-Com:  0.267D+00 0.860D+00
 Coeff-En:   0.000D+00 0.000D+00 0.000D+00 0.000D+00 0.000D+00 0.000D+00
 Coeff-En:   0.000D+00 0.100D+01
 Coeff:      0.279D-01-0.341D-01 0.257D-01 0.376D-02-0.126D+00-0.235D-01
 Coeff:      0.265D+00 0.861D+00
 Gap=     0.202 Goal=   None    Shift=    0.000
 RMSDP=7.28D-05 MaxDP=5.35D-03 DE=-5.95D-04 OVMax= 1.89D-02

 Cycle   9  Pass 1  IDiag  1:
 RMSU=  1.40D-05    CP:  9.77D-01  3.00D+00  1.23D+00  1.32D+00  3.00D+00
                    CP:  2.74D+00  1.93D+00  1.54D+00
 E= -1722.05111889011     Delta-E=       -0.000293063887 Rises=F Damp=F
 DIIS: error= 3.50D-04 at cycle   9 NSaved=   9.
 NSaved= 9 IEnMin= 9 EnMin= -1722.05111889011     IErMin= 9 ErrMin= 3.50D-04
 ErrMax= 3.50D-04  0.00D+00 EMaxC= 1.00D-01 BMatC= 9.43D-06 BMatP= 2.99D-05
 IDIUse=3 WtCom= 9.96D-01 WtEn= 3.50D-03
 Coeff-Com: -0.185D-01 0.194D-01-0.292D-01 0.967D-02 0.262D+00-0.458D+00
 Coeff-Com: -0.497D+00-0.862D-01 0.180D+01
 Coeff-En:   0.000D+00 0.000D+00 0.000D+00 0.000D+00 0.000D+00 0.000D+00
 Coeff-En:   0.000D+00 0.000D+00 0.100D+01
 Coeff:     -0.184D-01 0.194D-01-0.291D-01 0.964D-02 0.261D+00-0.456D+00
 Coeff:     -0.496D+00-0.859D-01 0.179D+01
 Gap=     0.202 Goal=   None    Shift=    0.000
 RMSDP=1.18D-04 MaxDP=8.70D-03 DE=-2.93D-04 OVMax= 3.11D-02

 Cycle  10  Pass 1  IDiag  1:
 RMSU=  7.78D-05    CP:  9.77D-01  3.00D+00  1.24D+00  1.35D+00  3.00D+00
                    CP:  3.00D+00  2.96D+00  2.80D+00  2.24D+00
 E= -1722.05135121654     Delta-E=       -0.000232326432 Rises=F Damp=F
 DIIS: error= 6.67D-05 at cycle  10 NSaved=  10.
 NSaved=10 IEnMin=10 EnMin= -1722.05135121654     IErMin=10 ErrMin= 6.67D-05
 ErrMax= 6.67D-05  0.00D+00 EMaxC= 1.00D-01 BMatC= 6.32D-07 BMatP= 9.43D-06
 IDIUse=1 WtCom= 1.00D+00 WtEn= 0.00D+00
 Coeff-Com: -0.536D-02 0.609D-02-0.652D-02-0.373D-02 0.315D-01-0.235D-01
 Coeff-Com: -0.393D-01-0.800D-01-0.215D-01 0.114D+01
 Coeff:     -0.536D-02 0.609D-02-0.652D-02-0.373D-02 0.315D-01-0.235D-01
 Coeff:     -0.393D-01-0.800D-01-0.215D-01 0.114D+01
 Gap=     0.202 Goal=   None    Shift=    0.000
 RMSDP=2.80D-05 MaxDP=2.00D-03 DE=-2.32D-04 OVMax= 7.41D-03

 Cycle  11  Pass 1  IDiag  1:
 RMSU=  1.26D-05    CP:  9.76D-01  3.00D+00  1.24D+00  1.36D+00  3.00D+00
                    CP:  3.00D+00  3.00D+00  3.00D+00  2.59D+00  1.28D+00
 E= -1722.05136217406     Delta-E=       -0.000010957519 Rises=F Damp=F
 DIIS: error= 1.77D-05 at cycle  11 NSaved=  11.
 NSaved=11 IEnMin=11 EnMin= -1722.05136217406     IErMin=11 ErrMin= 1.77D-05
 ErrMax= 1.77D-05  0.00D+00 EMaxC= 1.00D-01 BMatC= 5.03D-08 BMatP= 6.32D-07
 IDIUse=1 WtCom= 1.00D+00 WtEn= 0.00D+00
 Coeff-Com: -0.190D-03 0.273D-03-0.182D-03-0.195D-02-0.384D-02 0.225D-01
 Coeff-Com:  0.216D-01-0.804D-02-0.130D+00 0.183D+00 0.917D+00
 Coeff:     -0.190D-03 0.273D-03-0.182D-03-0.195D-02-0.384D-02 0.225D-01
 Coeff:      0.216D-01-0.804D-02-0.130D+00 0.183D+00 0.917D+00
 Gap=     0.202 Goal=   None    Shift=    0.000
 RMSDP=3.63D-06 MaxDP=1.94D-04 DE=-1.10D-05 OVMax= 7.94D-04

 Cycle  12  Pass 1  IDiag  1:
 RMSU=  1.27D-06    CP:  9.76D-01  3.00D+00  1.24D+00  1.36D+00  3.00D+00
                    CP:  3.00D+00  3.00D+00  3.00D+00  2.64D+00  1.30D+00
                    CP:  1.21D+00
 E= -1722.05136244924     Delta-E=       -0.000000275173 Rises=F Damp=F
 DIIS: error= 5.63D-06 at cycle  12 NSaved=  12.
 NSaved=12 IEnMin=12 EnMin= -1722.05136244924     IErMin=12 ErrMin= 5.63D-06
 ErrMax= 5.63D-06  0.00D+00 EMaxC= 1.00D-01 BMatC= 1.07D-08 BMatP= 5.03D-08
 IDIUse=1 WtCom= 1.00D+00 WtEn= 0.00D+00
 Coeff-Com:  0.121D-03-0.128D-03-0.274D-04-0.674D-03-0.972D-03 0.819D-02
 Coeff-Com:  0.688D-02-0.795D-03-0.386D-01 0.145D-02 0.342D+00 0.683D+00
 Coeff:      0.121D-03-0.128D-03-0.274D-04-0.674D-03-0.972D-03 0.819D-02
 Coeff:      0.688D-02-0.795D-03-0.386D-01 0.145D-02 0.342D+00 0.683D+00
 Gap=     0.202 Goal=   None    Shift=    0.000
 RMSDP=6.07D-07 MaxDP=4.13D-05 DE=-2.75D-07 OVMax= 1.25D-04

 Cycle  13  Pass 1  IDiag  1:
 RMSU=  4.02D-07    CP:  9.76D-01  3.00D+00  1.24D+00  1.36D+00  3.00D+00
                    CP:  3.00D+00  3.00D+00  3.00D+00  2.64D+00  1.30D+00
                    CP:  1.23D+00  1.25D+00
 E= -1722.05136247870     Delta-E=       -0.000000029462 Rises=F Damp=F
 DIIS: error= 4.23D-06 at cycle  13 NSaved=  13.
 NSaved=13 IEnMin=13 EnMin= -1722.05136247870     IErMin=13 ErrMin= 4.23D-06
 ErrMax= 4.23D-06  0.00D+00 EMaxC= 1.00D-01 BMatC= 4.41D-09 BMatP= 1.07D-08
 IDIUse=1 WtCom= 1.00D+00 WtEn= 0.00D+00
 Coeff-Com:  0.802D-04-0.983D-04-0.301D-04 0.179D-03 0.802D-03-0.205D-02
 Coeff-Com: -0.311D-02 0.169D-02 0.198D-01-0.625D-01-0.807D-01 0.387D+00
 Coeff-Com:  0.739D+00
 Coeff:      0.802D-04-0.983D-04-0.301D-04 0.179D-03 0.802D-03-0.205D-02
 Coeff:     -0.311D-02 0.169D-02 0.198D-01-0.625D-01-0.807D-01 0.387D+00
 Coeff:      0.739D+00
 Gap=     0.202 Goal=   None    Shift=    0.000
 RMSDP=5.50D-07 MaxDP=3.81D-05 DE=-2.95D-08 OVMax= 1.33D-04

 Cycle  14  Pass 1  IDiag  1:
 RMSU=  2.56D-07    CP:  9.76D-01  3.00D+00  1.24D+00  1.36D+00  3.00D+00
                    CP:  3.00D+00  3.00D+00  3.00D+00  2.65D+00  1.30D+00
                    CP:  1.24D+00  1.52D+00  1.77D+00
 E= -1722.05136249957     Delta-E=       -0.000000020870 Rises=F Damp=F
 DIIS: error= 3.52D-06 at cycle  14 NSaved=  14.
 NSaved=14 IEnMin=14 EnMin= -1722.05136249957     IErMin=14 ErrMin= 3.52D-06
 ErrMax= 3.52D-06  0.00D+00 EMaxC= 1.00D-01 BMatC= 1.03D-09 BMatP= 4.41D-09
 IDIUse=1 WtCom= 1.00D+00 WtEn= 0.00D+00
 Coeff-Com: -0.661D-04 0.907D-04 0.937D-04 0.263D-03-0.640D-03-0.164D-02
 Coeff-Com: -0.783D-03 0.149D-02 0.946D-02-0.112D-01-0.914D-01-0.187D+00
 Coeff-Com:  0.117D-01 0.127D+01
 Coeff:     -0.661D-04 0.907D-04 0.937D-04 0.263D-03-0.640D-03-0.164D-02
 Coeff:     -0.783D-03 0.149D-02 0.946D-02-0.112D-01-0.914D-01-0.187D+00
 Coeff:      0.117D-01 0.127D+01
 Gap=     0.202 Goal=   None    Shift=    0.000
 RMSDP=6.22D-07 MaxDP=4.39D-05 DE=-2.09D-08 OVMax= 1.49D-04

 Cycle  15  Pass 1  IDiag  1:
 RMSU=  1.26D-07    CP:  9.76D-01  3.00D+00  1.24D+00  1.36D+00  3.00D+00
                    CP:  3.00D+00  3.00D+00  3.00D+00  2.65D+00  1.30D+00
                    CP:  1.25D+00  1.79D+00  2.83D+00  1.97D+00
 E= -1722.05136251427     Delta-E=       -0.000000014708 Rises=F Damp=F
 DIIS: error= 2.18D-06 at cycle  15 NSaved=  15.
 NSaved=15 IEnMin=15 EnMin= -1722.05136251427     IErMin=15 ErrMin= 2.18D-06
 ErrMax= 2.18D-06  0.00D+00 EMaxC= 1.00D-01 BMatC= 2.49D-10 BMatP= 1.03D-09
 IDIUse=1 WtCom= 1.00D+00 WtEn= 0.00D+00
 Coeff-Com: -0.391D-04 0.464D-04-0.197D-04-0.991D-04 0.254D-03 0.128D-03
 Coeff-Com:  0.477D-03-0.101D-02-0.635D-02 0.271D-01 0.410D-01-0.864D-01
 Coeff-Com: -0.246D+00-0.338D+00 0.161D+01
 Coeff:     -0.391D-04 0.464D-04-0.197D-04-0.991D-04 0.254D-03 0.128D-03
 Coeff:      0.477D-03-0.101D-02-0.635D-02 0.271D-01 0.410D-01-0.864D-01
 Coeff:     -0.246D+00-0.338D+00 0.161D+01
 Gap=     0.202 Goal=   None    Shift=    0.000
 RMSDP=5.40D-07 MaxDP=3.70D-05 DE=-1.47D-08 OVMax= 1.32D-04

 Cycle  16  Pass 1  IDiag  1:
 RMSU=  3.17D-07    CP:  9.76D-01  3.00D+00  1.24D+00  1.36D+00  3.00D+00
                    CP:  3.00D+00  3.00D+00  3.00D+00  2.65D+00  1.30D+00
                    CP:  1.25D+00  1.99D+00  3.00D+00  2.92D+00  2.00D+00
 E= -1722.05136252031     Delta-E=       -0.000000006031 Rises=F Damp=F
 DIIS: error= 7.01D-07 at cycle  16 NSaved=  16.
 NSaved=16 IEnMin=16 EnMin= -1722.05136252031     IErMin=16 ErrMin= 7.01D-07
 ErrMax= 7.01D-07  0.00D+00 EMaxC= 1.00D-01 BMatC= 3.72D-11 BMatP= 2.49D-10
 IDIUse=1 WtCom= 1.00D+00 WtEn= 0.00D+00
 Coeff-Com:  0.438D-05-0.717D-05-0.383D-04-0.506D-04 0.378D-03 0.990D-04
 Coeff-Com: -0.169D-03-0.593D-03-0.153D-02 0.436D-02 0.161D-01 0.413D-01
 Coeff-Com: -0.718D-02-0.308D+00 0.253D-01 0.123D+01
 Coeff:      0.438D-05-0.717D-05-0.383D-04-0.506D-04 0.378D-03 0.990D-04
 Coeff:     -0.169D-03-0.593D-03-0.153D-02 0.436D-02 0.161D-01 0.413D-01
 Coeff:     -0.718D-02-0.308D+00 0.253D-01 0.123D+01
 Gap=     0.202 Goal=   None    Shift=    0.000
 RMSDP=2.22D-07 MaxDP=1.58D-05 DE=-6.03D-09 OVMax= 5.69D-05

 Cycle  17  Pass 1  IDiag  1:
 RMSU=  7.59D-08    CP:  9.76D-01  3.00D+00  1.24D+00  1.36D+00  3.00D+00
                    CP:  3.00D+00  3.00D+00  3.00D+00  2.65D+00  1.30D+00
                    CP:  1.25D+00  2.08D+00  3.00D+00  3.00D+00  2.51D+00
                    CP:  1.47D+00
 E= -1722.05136252097     Delta-E=       -0.000000000662 Rises=F Damp=F
 DIIS: error= 1.09D-07 at cycle  17 NSaved=  17.
 NSaved=17 IEnMin=17 EnMin= -1722.05136252097     IErMin=17 ErrMin= 1.09D-07
 ErrMax= 1.09D-07  0.00D+00 EMaxC= 1.00D-01 BMatC= 6.45D-12 BMatP= 3.72D-11
 IDIUse=1 WtCom= 1.00D+00 WtEn= 0.00D+00
 Coeff-Com:  0.441D-05-0.561D-05-0.116D-04-0.154D-04 0.945D-04 0.119D-03
 Coeff-Com: -0.991D-05-0.158D-03-0.644D-03 0.362D-03 0.546D-02 0.223D-01
 Coeff-Com:  0.719D-02-0.114D+00-0.735D-01 0.523D+00 0.630D+00
 Coeff:      0.441D-05-0.561D-05-0.116D-04-0.154D-04 0.945D-04 0.119D-03
 Coeff:     -0.991D-05-0.158D-03-0.644D-03 0.362D-03 0.546D-02 0.223D-01
 Coeff:      0.719D-02-0.114D+00-0.735D-01 0.523D+00 0.630D+00
 Gap=     0.202 Goal=   None    Shift=    0.000
 RMSDP=2.10D-08 MaxDP=1.61D-06 DE=-6.62D-10 OVMax= 5.35D-06

 Cycle  18  Pass 1  IDiag  1:
 RMSU=  5.69D-09    CP:  9.76D-01  3.00D+00  1.24D+00  1.36D+00  3.00D+00
                    CP:  3.00D+00  3.00D+00  3.00D+00  2.65D+00  1.30D+00
                    CP:  1.25D+00  2.08D+00  3.00D+00  3.00D+00  2.56D+00
                    CP:  1.52D+00  1.11D+00
 E= -1722.05136252099     Delta-E=       -0.000000000026 Rises=F Damp=F
 DIIS: error= 6.21D-08 at cycle  18 NSaved=  18.
 NSaved=18 IEnMin=18 EnMin= -1722.05136252099     IErMin=18 ErrMin= 6.21D-08
 ErrMax= 6.21D-08  0.00D+00 EMaxC= 1.00D-01 BMatC= 1.69D-12 BMatP= 6.45D-12
 IDIUse=1 WtCom= 1.00D+00 WtEn= 0.00D+00
 Coeff-Com:  0.187D-05-0.190D-05 0.231D-05 0.677D-06-0.426D-04 0.939D-04
 Coeff-Com:  0.715D-04 0.371D-04-0.259D-03-0.614D-03 0.782D-03 0.559D-02
 Coeff-Com:  0.502D-02-0.702D-02-0.486D-01 0.535D-01 0.375D+00 0.616D+00
 Coeff:      0.187D-05-0.190D-05 0.231D-05 0.677D-06-0.426D-04 0.939D-04
 Coeff:      0.715D-04 0.371D-04-0.259D-03-0.614D-03 0.782D-03 0.559D-02
 Coeff:      0.502D-02-0.702D-02-0.486D-01 0.535D-01 0.375D+00 0.616D+00
 Gap=     0.202 Goal=   None    Shift=    0.000
 RMSDP=7.18D-09 MaxDP=5.40D-07 DE=-2.64D-11 OVMax= 1.78D-06

 SCF Done:  E(RB3LYP) =  -1722.05136252     A.U. after   18 cycles
            NFock= 18  Conv=0.72D-08     -V/T= 2.0023
 KE= 1.718045854445D+03 PE=-5.455291815991D+03 EE= 1.319401128759D+03
 Leave Link  502 at Sat May 14 11:15:29 2022, MaxMem=   104857600 cpu:             575.4 elap:              36.1
 (Enter /apps/software/g16/l801.exe)
 DoSCS=F DFT=T ScalE2(SS,OS)=  1.000000  1.000000
 Range of M.O.s used for correlation:     1   303
 NBasis=   303 NAE=    42 NBE=    42 NFC=     0 NFV=     0
 NROrb=    303 NOA=    42 NOB=    42 NVA=   261 NVB=   261
 Leave Link  801 at Sat May 14 11:15:29 2022, MaxMem=   104857600 cpu:               0.3 elap:               0.0
 (Enter /apps/software/g16/l914.exe)
 RHF ground state
 Doing stability rather than CIS.
 Two-electron integrals replicated using symmetry.
 MDV=   104857600 DFT=T DoStab=T Mixed=T DoRPA=F DoScal=F NonHer=F
 Making orbital integer symmetry assigments:
 Orbital symmetries:
       Occupied  (A) (A) (A) (A) (A) (A) (A) (A) (A) (A) (A) (A)
                 (A) (A) (A) (A) (A) (A) (A) (A) (A) (A) (A) (A)
                 (A) (A) (A) (A) (A) (A) (A) (A) (A) (A) (A) (A)
                 (A) (A) (A) (A) (A) (A)
       Virtual   (A) (A) (A) (A) (A) (A) (A) (A) (A) (A) (A) (A)
                 (A) (A) (A) (A) (A) (A) (A) (A) (A) (A) (A) (A)
                 (A) (A) (A) (A) (A) (A) (A) (A) (A) (A) (A) (A)
                 (A) (A) (A) (A) (A) (A) (A) (A) (A) (A) (A) (A)
                 (A) (A) (A) (A) (A) (A) (A) (A) (A) (A) (A) (A)
                 (A) (A) (A) (A) (A) (A) (A) (A) (A) (A) (A) (A)
                 (A) (A) (A) (A) (A) (A) (A) (A) (A) (A) (A) (A)
                 (A) (A) (A) (A) (A) (A) (A) (A) (A) (A) (A) (A)
                 (A) (A) (A) (A) (A) (A) (A) (A) (A) (A) (A) (A)
                 (A) (A) (A) (A) (A) (A) (A) (A) (A) (A) (A) (A)
                 (A) (A) (A) (A) (A) (A) (A) (A) (A) (A) (A) (A)
                 (A) (A) (A) (A) (A) (A) (A) (A) (A) (A) (A) (A)
                 (A) (A) (A) (A) (A) (A) (A) (A) (A) (A) (A) (A)
                 (A) (A) (A) (A) (A) (A) (A) (A) (A) (A) (A) (A)
                 (A) (A) (A) (A) (A) (A) (A) (A) (A) (A) (A) (A)
                 (A) (A) (A) (A) (A) (A) (A) (A) (A) (A) (A) (A)
                 (A) (A) (A) (A) (A) (A) (A) (A) (A) (A) (A) (A)
                 (A) (A) (A) (A) (A) (A) (A) (A) (A) (A) (A) (A)
                 (A) (A) (A) (A) (A) (A) (A) (A) (A) (A) (A) (A)
                 (A) (A) (A) (A) (A) (A) (A) (A) (A) (A) (A) (A)
                 (A) (A) (A) (A) (A) (A) (A) (A) (A) (A) (A) (A)
                 (A) (A) (A) (A) (A) (A) (A) (A) (A)
    24 initial guesses have been made.
 Convergence on wavefunction:    0.001000000000000
 Davidson Disk Diagonalization:  ConvIn= 1.00D-03 SkipCon=T Conv= 1.00D-03.
 Max sub-space:  2000 roots to seek:    24 dimension of matrix:        21924
 Iteration     1 Dimension    24 NMult     0 NNew     24
 CISAX will form     6 AO SS matrices at one time.
 NMat=     6 NSing=     6 JSym2X= 0.
 FoFJK:  IHMeth= 1 ICntrl=       0 DoSepK=F KAlg= 0 I1Cent=           0 FoldK=F
 IRaf= 950000000 NMat=       6 IRICut=      15 DoRegI=T DoRafI=T ISym2E= 0 IDoP0=0 IntGTp=1.
 FoFCou: FMM=F IPFlag=           0 FMFlag=      100000 FMFlg1=           0
         NFxFlg=           0 DoJE=F BraDBF=F KetDBF=F FulRan=T
         wScrn=  0.000000 ICntrl=         0 IOpCl=  0 I1Cent=           0 NGrid=           0
         NMat0=    6 NMatS0=      6 NMatT0=    0 NMatD0=    6 NMtDS0=    0 NMtDT0=    0
 Symmetry not used in FoFCou.
 Raff kept on since  94.13% of shell-pairs survive, threshold=   0.20 IRatSp=94.
 NMat=     6 NSing=     6 JSym2X= 0.
 NMat=     6 NSing=     0 JSym2X= 0.
 NMat=     6 NSing=     0 JSym2X= 0.
 New state      1 was old state      4
 New state      2 was old state      8
 New state      3 was old state      6
 New state      4 was old state      2
 New state      5 was old state     10
 New state      6 was old state     12
 New state      7 was old state      3
 New state      8 was old state      9
 New state      9 was old state     11
 New state     10 was old state      1
 New state     11 was old state      7
 New state     12 was old state      5
 Excitation Energies [eV] at current iteration:
 Root      1 :     0.102690813541709
 Root      2 :     0.159605161169038
 Root      3 :     0.159683872769679
 Root      4 :     0.444322856083015
 Root      5 :     0.525399317933259
 Root      6 :     0.525831613534292
 Root      7 :     1.652925486297351
 Root      8 :     1.710676573577642
 Root      9 :     1.710790690365131
 Root     10 :     3.756830846108212
 Root     11 :     3.878361645642185
 Root     12 :     3.878860517560047
 Root     13 :     5.091481973923449
 Root     14 :     5.091658763529465
 Root     15 :     5.155768937157339
 Root     16 :     5.155944856947269
 Root     17 :     5.223284567427435
 Root     18 :     5.295021732610371
 Root     19 :     6.451551536791588
 Root     20 :     6.464352450662280
 Root     21 :     6.467971647947945
 Root     22 :     6.500995780897389
 Root     23 :     6.535513065442376
 Root     24 :     6.544046670693993
 Iteration     2 Dimension    48 NMult    24 NNew     24
 CISAX will form     6 AO SS matrices at one time.
 NMat=     6 NSing=     6 JSym2X= 0.
 NMat=     6 NSing=     6 JSym2X= 0.
 NMat=     6 NSing=     0 JSym2X= 0.
 NMat=     6 NSing=     0 JSym2X= 0.
 Root      1 not converged, maximum delta is    0.073892685206294
 Root      2 not converged, maximum delta is    0.108640498238784
 Root      3 not converged, maximum delta is    0.108515128021763
 Root      4 not converged, maximum delta is    0.071340133404362
 Root      5 not converged, maximum delta is    0.077321140621418
 Root      6 not converged, maximum delta is    0.077411572234422
 Root      7 not converged, maximum delta is    0.056018354954276
 Root      8 not converged, maximum delta is    0.041796425765240
 Root      9 not converged, maximum delta is    0.041751422489959
 Root     10 not converged, maximum delta is    0.026961141497797
 Root     11 not converged, maximum delta is    0.021495228321608
 Root     12 not converged, maximum delta is    0.021523132742411
 Excitation Energies [eV] at current iteration:
 Root      1 :    -0.340092986051978   Change is   -0.442783799593686
 Root      2 :    -0.277657239717531   Change is   -0.437262400886568
 Root      3 :    -0.277595251672622   Change is   -0.437279124442301
 Root      4 :     0.052923709041220   Change is   -0.391399147041795
 Root      5 :     0.144549149647754   Change is   -0.380850168285506
 Root      6 :     0.144948472869579   Change is   -0.380883140664714
 Root      7 :     1.453513868014632   Change is   -0.199411618282719
 Root      8 :     1.515866391424847   Change is   -0.194810182152795
 Root      9 :     1.515954944284538   Change is   -0.194835746080592
 Root     10 :     3.511186444579911   Change is   -0.245644401528301
 Root     11 :     3.636230025711568   Change is   -0.242131619930617
 Root     12 :     3.636720719842357   Change is   -0.242139797717691
 Root     13 :     5.047452620915913   Change is   -0.044029353007536
 Root     14 :     5.047628308412667   Change is   -0.044030455116798
 Root     15 :     5.141535754131409   Change is   -0.014233183025930
 Root     16 :     5.141714004094763   Change is   -0.014230852852506
 Root     17 :     5.180796733507464   Change is   -0.042487833919971
 Root     18 :     5.282981824039907   Change is   -0.012039908570464
 Root     19 :     6.401208791564648   Change is   -0.050342745226940
 Root     20 :     6.425072946114514   Change is   -0.039279504547765
 Root     21 :     6.435790475302907   Change is   -0.032181172645038
 Root     22 :     6.488383089949529   Change is   -0.012612690947861
 Root     23 :     6.510049003978045   Change is   -0.025464061464331
 Root     24 :     6.516645218262881   Change is   -0.027401452431112
 Iteration     3 Dimension    54 NMult    48 NNew      6
 CISAX will form     6 AO SS matrices at one time.
 NMat=     6 NSing=     3 JSym2X= 0.
 Root      1 not converged, maximum delta is    0.002910352546121
 Root      2 not converged, maximum delta is    0.001686274084062
 Root      3 not converged, maximum delta is    0.001683370938535
 New state      4 was old state      7
 Root      4 not converged, maximum delta is    0.007436308410517
 New state      5 was old state      8
 Root      5 not converged, maximum delta is    0.004178804850808
 New state      6 was old state      9
 Root      6 not converged, maximum delta is    0.004183549918009
 Excitation Energies [eV] at current iteration:
 Root      1 :    -0.341083790335729   Change is   -0.000990804283751
 Root      2 :    -0.278518845907279   Change is   -0.000861606189749
 Root      3 :    -0.278456815758997   Change is   -0.000861564086374
 Root      4 :     1.438887972070185   Change is   -0.014625895944447
 Root      5 :     1.506798041788495   Change is   -0.009068349636352
 Root      6 :     1.506888234252382   Change is   -0.009066710032156
 Iteration     4 Dimension    60 NMult    54 NNew      6
 CISAX will form     6 AO SS matrices at one time.
 NMat=     6 NSing=     3 JSym2X= 0.
 Root      1 has converged.
 Root      2 has converged.
 Root      3 has converged.
 Root      4 not converged, maximum delta is    0.001926206144152
 Root      5 not converged, maximum delta is    0.001465494486551
 Root      6 not converged, maximum delta is    0.001464854942930
 Excitation Energies [eV] at current iteration:
 Root      1 :    -0.341100808850444   Change is   -0.000017018514715
 Root      2 :    -0.278531312872220   Change is   -0.000012466964940
 Root      3 :    -0.278469283394473   Change is   -0.000012467635476
 Root      4 :     1.437572582131410   Change is   -0.001315389938775
 Root      5 :     1.505697577947069   Change is   -0.001100463841426
 Root      6 :     1.505787637504005   Change is   -0.001100596748377
 Iteration     5 Dimension    63 NMult    60 NNew      3
 CISAX will form     3 AO SS matrices at one time.
 NMat=     3 NSing=     3 JSym2X= 0.
 Root      1 has converged.
 Root      2 has converged.
 Root      3 has converged.
 Root      4 has converged.
 Root      5 has converged.
 Root      6 has converged.
 Excitation Energies [eV] at current iteration:
 Root      1 :    -0.341100808850420   Change is    0.000000000000024
 Root      2 :    -0.278531312872244   Change is   -0.000000000000024
 Root      3 :    -0.278469283394482   Change is   -0.000000000000009
 Root      4 :     1.437448476431615   Change is   -0.000124105699795
 Root      5 :     1.505652838176743   Change is   -0.000044739770326
 Root      6 :     1.505742896742273   Change is   -0.000044740761732
 Convergence achieved on expansion vectors.
 ***********************************************************************
 Stability analysis using <AA,BB:AA,BB> singles matrix:
 ***********************************************************************
 1PDM for each excited state written to RWF  633
 Ground to excited state transition densities written to RWF  633

 Eigenvectors of the stability matrix:
 
 Eigenvector   1:      Triplet-A    Eigenvalue=-0.0125352  <S**2>=2.000
      41 -> 43         0.43907
      41 -> 44         0.21741
      42 -> 43         0.21893
      42 -> 44        -0.43823
 
 Eigenvector   2:      Triplet-A    Eigenvalue=-0.0102358  <S**2>=2.000
      40 -> 43        -0.34587
      40 -> 44         0.20594
      41 -> 43        -0.12388
      41 -> 44         0.37924
      42 -> 43        -0.37845
      42 -> 44        -0.12575
 
 Eigenvector   3:      Triplet-A    Eigenvalue=-0.0102336  <S**2>=2.000
      40 -> 43        -0.20653
      40 -> 44        -0.34533
      41 -> 43         0.37883
      41 -> 44         0.12427
      42 -> 43        -0.12468
      42 -> 44         0.37927
 
 Eigenvector   4:      Singlet-A    Eigenvalue= 0.0528253  <S**2>=0.000
      41 -> 43         0.44149
      41 -> 44         0.22000
      42 -> 43         0.22095
      42 -> 44        -0.44114
 
 Eigenvector   5:      Singlet-A    Eigenvalue= 0.0553317  <S**2>=0.000
      40 -> 43         0.45253
      40 -> 44        -0.17277
      41 -> 44        -0.35164
      42 -> 43         0.35073
 
 Eigenvector   6:      Singlet-A    Eigenvalue= 0.0553350  <S**2>=0.000
      40 -> 43         0.17318
      40 -> 44         0.45210
      41 -> 43        -0.35113
      42 -> 44        -0.35169
 The wavefunction has an RHF -> UHF instability.
 Leave Link  914 at Sat May 14 11:17:53 2022, MaxMem=   104857600 cpu:            2302.8 elap:             144.3
 (Enter /apps/software/g16/l601.exe)
 Copying SCF densities to generalized density rwf, IOpCl= 0 IROHF=0.

 **********************************************************************

            Population analysis using the SCF density.

 **********************************************************************

 Orbital symmetries:
       Occupied  (A) (A) (A) (A) (A) (A) (A) (A) (A) (A) (A) (A)
                 (A) (A) (A) (A) (A) (A) (A) (A) (A) (A) (A) (A)
                 (A) (A) (A) (A) (A) (A) (A) (A) (A) (A) (A) (A)
                 (A) (A) (A) (A) (A) (A)
       Virtual   (A) (A) (A) (A) (A) (A) (A) (A) (A) (A) (A) (A)
                 (A) (A) (A) (A) (A) (A) (A) (A) (A) (A) (A) (A)
                 (A) (A) (A) (A) (A) (A) (A) (A) (A) (A) (A) (A)
                 (A) (A) (A) (A) (A) (A) (A) (A) (A) (A) (A) (A)
                 (A) (A) (A) (A) (A) (A) (A) (A) (A) (A) (A) (A)
                 (A) (A) (A) (A) (A) (A) (A) (A) (A) (A) (A) (A)
                 (A) (A) (A) (A) (A) (A) (A) (A) (A) (A) (A) (A)
                 (A) (A) (A) (A) (A) (A) (A) (A) (A) (A) (A) (A)
                 (A) (A) (A) (A) (A) (A) (A) (A) (A) (A) (A) (A)
                 (A) (A) (A) (A) (A) (A) (A) (A) (A) (A) (A) (A)
                 (A) (A) (A) (A) (A) (A) (A) (A) (A) (A) (A) (A)
                 (A) (A) (A) (A) (A) (A) (A) (A) (A) (A) (A) (A)
                 (A) (A) (A) (A) (A) (A) (A) (A) (A) (A) (A) (A)
                 (A) (A) (A) (A) (A) (A) (A) (A) (A) (A) (A) (A)
                 (A) (A) (A) (A) (A) (A) (A) (A) (A) (A) (A) (A)
                 (A) (A) (A) (A) (A) (A) (A) (A) (A) (A) (A) (A)
                 (A) (A) (A) (A) (A) (A) (A) (A) (A) (A) (A) (A)
                 (A) (A) (A) (A) (A) (A) (A) (A) (A) (A) (A) (A)
                 (A) (A) (A) (A) (A) (A) (A) (A) (A) (A) (A) (A)
                 (A) (A) (A) (A) (A) (A) (A) (A) (A) (A) (A) (A)
                 (A) (A) (A) (A) (A) (A) (A) (A) (A) (A) (A) (A)
                 (A) (A) (A) (A) (A) (A) (A) (A) (A)
 The electronic state is 1-A.
 Alpha  occ. eigenvalues -- -256.37041 -30.30799 -26.17030 -26.16889 -26.16889
 Alpha  occ. eigenvalues --  -19.48741 -19.48740 -19.48738 -19.48738 -19.48737
 Alpha  occ. eigenvalues --  -19.48737  -3.73232  -2.50657  -2.50319  -2.50319
 Alpha  occ. eigenvalues --   -1.37409  -1.36514  -1.36176  -1.36176  -1.36010
 Alpha  occ. eigenvalues --   -1.36010  -0.89035  -0.88671  -0.88199  -0.88197
 Alpha  occ. eigenvalues --   -0.88064  -0.88063  -0.82081  -0.77935  -0.77845
 Alpha  occ. eigenvalues --   -0.77843  -0.76674  -0.76672  -0.68887  -0.68884
 Alpha  occ. eigenvalues --   -0.68169  -0.68168  -0.68067  -0.66569  -0.54881
 Alpha  occ. eigenvalues --   -0.54398  -0.54397
 Alpha virt. eigenvalues --   -0.34193  -0.34192  -0.31742  -0.26932  -0.26931
 Alpha virt. eigenvalues --   -0.26158  -0.22817  -0.22816  -0.19457  -0.19271
 Alpha virt. eigenvalues --   -0.19270  -0.18980  -0.18210  -0.18210  -0.06663
 Alpha virt. eigenvalues --   -0.04665  -0.03768  -0.03767  -0.02100  -0.01232
 Alpha virt. eigenvalues --   -0.01227  -0.00752  -0.00748   0.02035   0.03887
 Alpha virt. eigenvalues --    0.06836   0.06838   0.10644   0.11932   0.11933
 Alpha virt. eigenvalues --    0.13763   0.14300   0.14304   0.17392   0.17393
 Alpha virt. eigenvalues --    0.18367   0.19792   0.19802   0.19803   0.22280
 Alpha virt. eigenvalues --    0.24497   0.25848   0.25850   0.30455   0.30457
 Alpha virt. eigenvalues --    0.31164   0.31167   0.32556   0.33739   0.33740
 Alpha virt. eigenvalues --    0.35835   0.38164   0.40783   0.40789   0.47040
 Alpha virt. eigenvalues --    0.48160   0.51918   0.51921   0.65007   0.65010
 Alpha virt. eigenvalues --    0.65243   0.78837   0.78843   0.83659   0.83664
 Alpha virt. eigenvalues --    0.85261   0.86160   0.86162   0.90059   0.95552
 Alpha virt. eigenvalues --    0.95557   0.97973   0.98977   0.98982   1.07485
 Alpha virt. eigenvalues --    1.16515   1.16522   1.17486   1.19321   1.19334
 Alpha virt. eigenvalues --    1.28209   1.28214   1.28877   1.30333   1.30338
 Alpha virt. eigenvalues --    1.31135   1.34578   1.34984   1.34988   1.38455
 Alpha virt. eigenvalues --    1.39396   1.40752   1.40756   1.45099   1.45105
 Alpha virt. eigenvalues --    1.48233   1.48239   1.48294   1.51734   1.58163
 Alpha virt. eigenvalues --    1.58166   1.62049   1.64865   1.64870   1.74095
 Alpha virt. eigenvalues --    1.74105   1.74154   1.77283   1.77703   1.77710
 Alpha virt. eigenvalues --    1.82178   1.82295   1.82300   1.82797   1.83559
 Alpha virt. eigenvalues --    1.86091   1.86098   1.89716   1.89725   1.93075
 Alpha virt. eigenvalues --    1.93090   1.93196   2.01378   2.01388   2.02257
 Alpha virt. eigenvalues --    2.07565   2.07571   2.15026   2.19628   2.19926
 Alpha virt. eigenvalues --    2.19939   2.21583   2.21808   2.21811   2.24980
 Alpha virt. eigenvalues --    2.27064   2.27068   2.28109   2.31109   2.33344
 Alpha virt. eigenvalues --    2.33349   2.35145   2.35482   2.35489   2.44935
 Alpha virt. eigenvalues --    2.44949   2.46900   2.46911   2.50524   2.51166
 Alpha virt. eigenvalues --    2.54250   2.54255   2.61877   2.61885   2.62633
 Alpha virt. eigenvalues --    2.74816   3.06460   3.06463   3.25637   3.27390
 Alpha virt. eigenvalues --    3.30910   3.30919   3.36800   3.36802   3.38844
 Alpha virt. eigenvalues --    3.43611   3.43614   3.55985   3.56234   3.57643
 Alpha virt. eigenvalues --    3.57649   3.60024   3.60031   3.64656   3.79695
 Alpha virt. eigenvalues --    3.81174   3.82515   3.82518   3.90030   3.90059
 Alpha virt. eigenvalues --    3.94086   3.95342   3.95347   4.76488   4.77185
 Alpha virt. eigenvalues --    4.77187   4.77842   4.79549   4.79553   4.85801
 Alpha virt. eigenvalues --    4.85808   4.86646   4.89652   4.92656   4.92667
 Alpha virt. eigenvalues --    5.02768   5.02769   5.03380   5.03879   5.04714
 Alpha virt. eigenvalues --    5.04718   5.06049   5.07348   5.07351   5.07983
 Alpha virt. eigenvalues --    5.10725   5.10730   5.11967   5.12240   5.12253
 Alpha virt. eigenvalues --    5.12501   5.13273   5.13279   5.60288   5.60293
 Alpha virt. eigenvalues --    5.61043   5.61048   5.62150   5.65840   5.85021
 Alpha virt. eigenvalues --    5.85031   5.85561   5.87738   5.89186   5.89189
 Alpha virt. eigenvalues --    5.98836   5.98841   6.03955   6.05169   6.06678
 Alpha virt. eigenvalues --    6.06688   6.07545   6.09860   6.13690   6.13698
 Alpha virt. eigenvalues --    6.22617   6.22620   6.24245   6.24248   6.28544
 Alpha virt. eigenvalues --    6.36241   6.46844   6.46853   6.55695   6.55714
 Alpha virt. eigenvalues --    6.56509   6.56557   6.59716   6.59726   6.65405
 Alpha virt. eigenvalues --    6.65415   6.67797   6.67813   6.69789   6.83028
 Alpha virt. eigenvalues --   42.92165  43.05043  43.05349  43.05353  43.47811
 Alpha virt. eigenvalues --   43.47826
          Condensed to atoms (all electrons):
               1          2          3          4          5          6
     1  Fe  24.842129   0.111053  -0.014538   0.111066  -0.013871   0.110987
     2  O    0.111053   7.888776   0.310369  -0.012880   0.000024  -0.022959
     3  H   -0.014538   0.310369   0.318248   0.000060  -0.000061   0.007305
     4  O    0.111066  -0.012880   0.000060   7.888692   0.312207  -0.002942
     5  H   -0.013871   0.000024  -0.000061   0.312207   0.322773  -0.000006
     6  O    0.110987  -0.022959   0.007305  -0.002942  -0.000006   7.888985
     7  H   -0.013861   0.000617  -0.000259  -0.000005   0.000013   0.312202
     8  O    0.111074  -0.002940   0.000013  -0.022881   0.000614  -0.012834
     9  H   -0.014540   0.000013   0.000028   0.007282  -0.000259   0.000060
    10  O    0.111089  -0.022856   0.000254  -0.012853   0.002522  -0.022932
    11  H   -0.014544   0.007280  -0.000163  -0.000022   0.000307   0.000255
    12  O    0.111023  -0.012887  -0.000021  -0.022900   0.000363  -0.012861
    13  H   -0.014528   0.000060  -0.000043   0.000254   0.000001  -0.000021
    14  H   -0.013863   0.000362   0.000001   0.000023   0.000396   0.000615
    15  H   -0.014546  -0.000021  -0.000043   0.310370  -0.014404   0.000013
    16  H   -0.013862   0.002527   0.000307   0.000615   0.000040   0.000024
    17  H   -0.013869   0.312203  -0.014403   0.002531   0.000397   0.000363
    18  H   -0.014538   0.000255  -0.000163   0.000013  -0.000016   0.310376
    19  H   -0.013864  -0.000005  -0.000016   0.000363   0.000040   0.002526
               7          8          9         10         11         12
     1  Fe  -0.013861   0.111074  -0.014540   0.111089  -0.014544   0.111023
     2  O    0.000617  -0.002940   0.000013  -0.022856   0.007280  -0.012887
     3  H   -0.000259   0.000013   0.000028   0.000254  -0.000163  -0.000021
     4  O   -0.000005  -0.022881   0.007282  -0.012853  -0.000022  -0.022900
     5  H    0.000013   0.000614  -0.000259   0.002522   0.000307   0.000363
     6  O    0.312202  -0.012834   0.000060  -0.022932   0.000255  -0.012861
     7  H    0.322760   0.000022  -0.000060   0.000363   0.000001   0.002526
     8  O    0.000022   7.888693   0.310373  -0.012868   0.000060  -0.022887
     9  H   -0.000060   0.310373   0.318253  -0.000021  -0.000043   0.000254
    10  O    0.000363  -0.012868  -0.000021   7.888699   0.310367  -0.002939
    11  H    0.000001   0.000060  -0.000043   0.310367   0.318280   0.000013
    12  O    0.002526  -0.022887   0.000254  -0.002939   0.000013   7.888897
    13  H    0.000305   0.007290  -0.000163   0.000013   0.000028   0.310362
    14  H    0.000040   0.002527   0.000307   0.312194  -0.014402  -0.000005
    15  H   -0.000016   0.000254  -0.000163   0.000060  -0.000043   0.007291
    16  H    0.000398   0.000363   0.000001  -0.000006  -0.000016   0.312200
    17  H    0.000040  -0.000006  -0.000016   0.000614  -0.000259   0.000025
    18  H   -0.014405  -0.000021  -0.000043   0.007291  -0.000164   0.000060
    19  H    0.000396   0.312208  -0.014402   0.000022  -0.000061   0.000615
              13         14         15         16         17         18
     1  Fe  -0.014528  -0.013863  -0.014546  -0.013862  -0.013869  -0.014538
     2  O    0.000060   0.000362  -0.000021   0.002527   0.312203   0.000255
     3  H   -0.000043   0.000001  -0.000043   0.000307  -0.014403  -0.000163
     4  O    0.000254   0.000023   0.310370   0.000615   0.002531   0.000013
     5  H    0.000001   0.000396  -0.014404   0.000040   0.000397  -0.000016
     6  O   -0.000021   0.000615   0.000013   0.000024   0.000363   0.310376
     7  H    0.000305   0.000040  -0.000016   0.000398   0.000040  -0.014405
     8  O    0.007290   0.002527   0.000254   0.000363  -0.000006  -0.000021
     9  H   -0.000163   0.000307  -0.000163   0.000001  -0.000016  -0.000043
    10  O    0.000013   0.312194   0.000060  -0.000006   0.000614   0.007291
    11  H    0.000028  -0.014402  -0.000043  -0.000016  -0.000259  -0.000164
    12  O    0.310362  -0.000005   0.007291   0.312200   0.000025   0.000060
    13  H    0.318232  -0.000016  -0.000163  -0.014403  -0.000061  -0.000043
    14  H   -0.000016   0.322777  -0.000060   0.000013   0.000040  -0.000259
    15  H   -0.000163  -0.000060   0.318266  -0.000259   0.000308   0.000028
    16  H   -0.014403   0.000013  -0.000259   0.322773   0.000397  -0.000061
    17  H   -0.000061   0.000040   0.000308   0.000397   0.322781   0.000001
    18  H   -0.000043  -0.000259   0.000028  -0.000061   0.000001   0.318219
    19  H   -0.000260   0.000397   0.000001   0.000040   0.000013   0.000305
              19
     1  Fe  -0.013864
     2  O   -0.000005
     3  H   -0.000016
     4  O    0.000363
     5  H    0.000040
     6  O    0.002526
     7  H    0.000396
     8  O    0.312208
     9  H   -0.014402
    10  O    0.000022
    11  H   -0.000061
    12  O    0.000615
    13  H   -0.000260
    14  H    0.000397
    15  H    0.000001
    16  H    0.000040
    17  H    0.000013
    18  H    0.000305
    19  H    0.322757
 Mulliken charges:
               1
     1  Fe   0.662002
     2  O   -0.558990
     3  H    0.393126
     4  O   -0.558994
     5  H    0.388920
     6  O   -0.559157
     7  H    0.388925
     8  O   -0.559056
     9  H    0.393139
    10  O   -0.559015
    11  H    0.393126
    12  O   -0.559128
    13  H    0.393156
    14  H    0.388914
    15  H    0.393128
    16  H    0.388910
    17  H    0.388902
    18  H    0.393164
    19  H    0.388926
 Sum of Mulliken charges =   2.00000
 Mulliken charges with hydrogens summed into heavy atoms:
               1
     1  Fe   0.662002
     2  O    0.223038
     4  O    0.223055
     6  O    0.222932
     8  O    0.223010
    10  O    0.223024
    12  O    0.222938
 Electronic spatial extent (au):  <R**2>=           1031.5675
 Charge=              2.0000 electrons
 Dipole moment (field-independent basis, Debye):
    X=             -0.0012    Y=             -0.0014    Z=             -0.0017  Tot=              0.0025
 Quadrupole moment (field-independent basis, Debye-Ang):
   XX=            -22.9553   YY=            -15.7719   ZZ=            -15.7809
   XY=             -0.0015   XZ=              0.0117   YZ=              0.0056
 Traceless Quadrupole moment (field-independent basis, Debye-Ang):
   XX=             -4.7859   YY=              2.3974   ZZ=              2.3885
   XY=             -0.0015   XZ=              0.0117   YZ=              0.0056
 Octapole moment (field-independent basis, Debye-Ang**2):
  XXX=             -0.0097  YYY=              0.0117  ZZZ=              0.0067  XYY=              0.0022
  XXY=             -0.0076  XXZ=             -0.0321  XZZ=             -0.0068  YZZ=             -0.0121
  YYZ=             -0.0094  XYZ=             -0.0191
 Hexadecapole moment (field-independent basis, Debye-Ang**3):
 XXXX=           -294.7469 YYYY=           -168.0826 ZZZZ=           -168.1313 XXXY=             -0.0134
 XXXZ=              0.0951 YYYX=              8.1624 YYYZ=             -0.0013 ZZZX=             39.8471
 ZZZY=              0.0448 XXYY=            -60.5827 XXZZ=            -60.4660 YYZZ=            -55.9921
 XXYZ=              0.0215 YYXZ=            -39.8209 ZZXY=             -8.1709
 N-N= 6.957934702665D+02 E-N=-5.455291828877D+03  KE= 1.718045854445D+03
 No NMR shielding tensors so no spin-rotation constants.
 Leave Link  601 at Sat May 14 11:17:53 2022, MaxMem=   104857600 cpu:               1.9 elap:               0.2
 (Enter /apps/software/g16/l9999.exe)
 1\1\GINC-CNODE03\Stability\RB3LYP\def2TZVP\Fe1H12O6(2+)\LCZ\14-May-202
 2\0\\#p B3LYP/Def2TZVP guess=mix stable\\[Fe(H2O)6]2+\\2,1\Fe,0,-0.642
 5717605,0.5180392056,0.1151525948\O,0,0.111746875,2.1502736296,-0.7800
 330766\H,0,0.7076677542,2.7159064382,-0.2534686021\O,0,-1.3119384494,-
 0.3025443721,-1.5915397432\H,0,-1.9364836681,0.1309313599,-2.200907607
 7\O,0,0.027209188,1.3394057211,1.8212267689\H,0,0.6525876562,0.9068687
 008,2.4304031155\O,0,-1.3964805353,-1.1144480791,1.0102391629\H,0,-1.9
 933139268,-1.6794048423,0.4839749089\O,0,-2.2868202362,1.6334082837,0.
 4100537249\H,0,-2.353770211,2.4729106521,-0.0830180882\O,0,1.001943729
 3,-0.5971233562,-0.1795016516\H,0,1.0680776668,-1.4375884294,0.3120254
 585\H,0,-3.1892209847,1.2728024717,0.4803641716\H,0,-0.6652199156,-0.7
 83520063,-2.1417946811\H,0,1.9045464642,-0.2367828976,-0.2484504359\H,
 0,0.437766506,2.171136038,-1.697943468\H,0,-0.6187560453,1.8212395471,
 2.3715986615\H,0,-1.7212601067,-1.1359500081,1.9285687869\\Version=ES6
 4L-G16RevA.03\State=1-A\HF=-1722.0513625\RMSD=7.179e-09\Dipole=0.00073
 16,0.0003687,0.000542\Quadrupole=1.7656158,-3.0771769,1.3115611,0.3015
 757,0.0939502,-1.4975361\PG=C01 [X(Fe1H12O6)]\\@


  THE LARGE PRINT GIVETH,
  AND THE SMALL PRINT TAKETH AWAY.

                     -- TOM WAITS
 Job cpu time:       0 days  0 hours 48 minutes 19.7 seconds.
 Elapsed time:       0 days  0 hours  3 minutes  1.9 seconds.
 File lengths (MBytes):  RWF=    532 Int=      0 D2E=      0 Chk=     26 Scr=      1
 Normal termination of Gaussian 16 at Sat May 14 11:17:54 2022.

Sender: Unischeduler System <lcz@mgt01>
Subject: Job 131974: <#!/bin/bash
#BSUB -J intel
#BSUB -o stability-B3LYP.out
#BSUB -n 16
#BSUB -q cqueue
#BSUB -R span[hosts=1]
export g16root=/apps/software
source /apps/software/g16/bsd/g16.profile
export GAUSS_SCRDIR=/scratch
/apps/software/g16/g16 < stability-B3LYP.inp > stability-B3LYP.out> Done

Job <#!/bin/bash
#BSUB -J intel
#BSUB -o stability-B3LYP.out
#BSUB -n 16
#BSUB -q cqueue
#BSUB -R span[hosts=1]
export g16root=/apps/software
source /apps/software/g16/bsd/g16.profile
export GAUSS_SCRDIR=/scratch
/apps/software/g16/g16 < stability-B3LYP.inp > stability-B3LYP.out> was submitted from host <mgt01> by user <lcz>.
Job was executed on host(s) <16*cnode03>, in queue <cqueue>, as user <lcz>.
</apps/users/lcz> was used as the home directory.
</apps/users/lcz/exe5/task2/stabilityTest/Gaussian/def2TZVP> was used as the working directory.
Started at 2022-05-14 11:14:51
Results reported at 2022-05-14 11:17:54

Your job looked like:

------------------------------------------------------------
# User input
#!/bin/bash
#BSUB -J intel
#BSUB -o stability-B3LYP.out
#BSUB -n 16
#BSUB -q cqueue
#BSUB -R span[hosts=1]
export g16root=/apps/software
source /apps/software/g16/bsd/g16.profile
export GAUSS_SCRDIR=/scratch
/apps/software/g16/g16 < stability-B3LYP.inp > stability-B3LYP.out
------------------------------------------------------------

Successfully completed.

Resource usage summary:

    CPU time   :         2810.37 sec.
    Max Memory :               978 MB
    Max Processes  :               5


The output (if any) follows:

