 Entering Gaussian System, Link 0=/apps/software/g16/g16
 Initial command:
 /apps/software/g16/l1.exe "/scratch/Gau-184384.inp" -scrdir="/scratch/"
 Entering Link 1 = /apps/software/g16/l1.exe PID=    184385.
  
 Copyright (c) 1988,1990,1992,1993,1995,1998,2003,2009,2016,
            Gaussian, Inc.  All Rights Reserved.
  
 This is part of the Gaussian(R) 16 program.  It is based on
 the Gaussian(R) 09 system (copyright 2009, Gaussian, Inc.),
 the Gaussian(R) 03 system (copyright 2003, Gaussian, Inc.),
 the Gaussian(R) 98 system (copyright 1998, Gaussian, Inc.),
 the Gaussian(R) 94 system (copyright 1995, Gaussian, Inc.),
 the Gaussian 92(TM) system (copyright 1992, Gaussian, Inc.),
 the Gaussian 90(TM) system (copyright 1990, Gaussian, Inc.),
 the Gaussian 88(TM) system (copyright 1988, Gaussian, Inc.),
 the Gaussian 86(TM) system (copyright 1986, Carnegie Mellon
 University), and the Gaussian 82(TM) system (copyright 1983,
 Carnegie Mellon University). Gaussian is a federally registered
 trademark of Gaussian, Inc.
  
 This software contains proprietary and confidential information,
 including trade secrets, belonging to Gaussian, Inc.
  
 This software is provided under written license and may be
 used, copied, transmitted, or stored only in accord with that
 written license.
  
 The following legend is applicable only to US Government
 contracts under FAR:
  
                    RESTRICTED RIGHTS LEGEND
  
 Use, reproduction and disclosure by the US Government is
 subject to restrictions as set forth in subparagraphs (a)
 and (c) of the Commercial Computer Software - Restricted
 Rights clause in FAR 52.227-19.
  
 Gaussian, Inc.
 340 Quinnipiac St., Bldg. 40, Wallingford CT 06492
  
  
 ---------------------------------------------------------------
 Warning -- This program may not be used in any manner that
 competes with the business of Gaussian, Inc. or will provide
 assistance to any competitor of Gaussian, Inc.  The licensee
 of this program is prohibited from giving any competitor of
 Gaussian, Inc. access to this program.  By using this program,
 the user acknowledges that Gaussian, Inc. is engaged in the
 business of creating and licensing software in the field of
 computational chemistry and represents and warrants to the
 licensee that it is not a competitor of Gaussian, Inc. and that
 it will not use this program in any manner prohibited above.
 ---------------------------------------------------------------
  

 Cite this work as:
 Gaussian 16, Revision A.03,
 M. J. Frisch, G. W. Trucks, H. B. Schlegel, G. E. Scuseria, 
 M. A. Robb, J. R. Cheeseman, G. Scalmani, V. Barone, 
 G. A. Petersson, H. Nakatsuji, X. Li, M. Caricato, A. V. Marenich, 
 J. Bloino, B. G. Janesko, R. Gomperts, B. Mennucci, H. P. Hratchian, 
 J. V. Ortiz, A. F. Izmaylov, J. L. Sonnenberg, D. Williams-Young, 
 F. Ding, F. Lipparini, F. Egidi, J. Goings, B. Peng, A. Petrone, 
 T. Henderson, D. Ranasinghe, V. G. Zakrzewski, J. Gao, N. Rega, 
 G. Zheng, W. Liang, M. Hada, M. Ehara, K. Toyota, R. Fukuda, 
 J. Hasegawa, M. Ishida, T. Nakajima, Y. Honda, O. Kitao, H. Nakai, 
 T. Vreven, K. Throssell, J. A. Montgomery, Jr., J. E. Peralta, 
 F. Ogliaro, M. J. Bearpark, J. J. Heyd, E. N. Brothers, K. N. Kudin, 
 V. N. Staroverov, T. A. Keith, R. Kobayashi, J. Normand, 
 K. Raghavachari, A. P. Rendell, J. C. Burant, S. S. Iyengar, 
 J. Tomasi, M. Cossi, J. M. Millam, M. Klene, C. Adamo, R. Cammi, 
 J. W. Ochterski, R. L. Martin, K. Morokuma, O. Farkas, 
 J. B. Foresman, and D. J. Fox, Gaussian, Inc., Wallingford CT, 2016.
 
 ******************************************
 Gaussian 16:  ES64L-G16RevA.03 25-Dec-2016
                14-May-2022 
 ******************************************
 %nprocshared=16
 Will use up to   16 processors via shared memory.
 --------------------------------
 #p RHF/Def2TZVP stable guess=mix
 --------------------------------
 1/38=1,172=1/1;
 2/12=2,17=6,18=5,40=1/2;
 3/5=44,7=101,11=1,25=1,30=1,116=1/1,2,3;
 4/13=-1/1;
 5/5=2,38=5/2;
 8/6=1,10=90,11=11/1;
 9/8=-1,42=1/14;
 6/7=2,8=2,9=2,10=2,28=1/1;
 99/5=1,9=1/99;
 Leave Link    1 at Sat May 14 11:14:48 2022, MaxMem=           0 cpu:               0.2 elap:               0.0
 (Enter /apps/software/g16/l101.exe)
 ------------
 [Fe(H2O)6]2+
 ------------
 Symbolic Z-matrix:
 Charge =  2 Multiplicity = 1
 Fe                   -0.64257   0.51804   0.11515 
 O                     0.11175   2.15027  -0.78003 
 H                     0.70767   2.71591  -0.25347 
 O                    -1.31194  -0.30254  -1.59154 
 H                    -1.93648   0.13093  -2.20091 
 O                     0.02721   1.33941   1.82123 
 H                     0.65259   0.90687   2.4304 
 O                    -1.39648  -1.11445   1.01024 
 H                    -1.99331  -1.6794    0.48397 
 O                    -2.28682   1.63341   0.41005 
 H                    -2.35377   2.47291  -0.08302 
 O                     1.00194  -0.59712  -0.1795 
 H                     1.06808  -1.43759   0.31203 
 H                    -3.18922   1.2728    0.48036 
 H                    -0.66522  -0.78352  -2.14179 
 H                     1.90455  -0.23678  -0.24845 
 H                     0.43777   2.17114  -1.69794 
 H                    -0.61876   1.82124   2.3716 
 H                    -1.72126  -1.13595   1.92857 
 
 ITRead=  0  0  0  0  0  0  0  0  0  0  0  0  0  0  0  0  0  0  0
 MicOpt= -1 -1 -1 -1 -1 -1 -1 -1 -1 -1 -1 -1 -1 -1 -1 -1 -1 -1 -1
 NAtoms=     19 NQM=       19 NQMF=       0 NMMI=      0 NMMIF=      0
                NMic=       0 NMicF=      0.
                    Isotopes and Nuclear Properties:
 (Nuclear quadrupole moments (NQMom) in fm**2, nuclear magnetic moments (NMagM)
  in nuclear magnetons)

  Atom         1           2           3           4           5           6           7           8           9          10
 IAtWgt=          56          16           1          16           1          16           1          16           1          16
 AtmWgt=  55.9349393  15.9949146   1.0078250  15.9949146   1.0078250  15.9949146   1.0078250  15.9949146   1.0078250  15.9949146
 NucSpn=           0           0           1           0           1           0           1           0           1           0
 AtZEff=  -0.0000000  -0.0000000  -0.0000000  -0.0000000  -0.0000000  -0.0000000  -0.0000000  -0.0000000  -0.0000000  -0.0000000
 NQMom=    0.0000000   0.0000000   0.0000000   0.0000000   0.0000000   0.0000000   0.0000000   0.0000000   0.0000000   0.0000000
 NMagM=    0.0000000   0.0000000   2.7928460   0.0000000   2.7928460   0.0000000   2.7928460   0.0000000   2.7928460   0.0000000
 AtZNuc=  26.0000000   8.0000000   1.0000000   8.0000000   1.0000000   8.0000000   1.0000000   8.0000000   1.0000000   8.0000000

  Atom        11          12          13          14          15          16          17          18          19
 IAtWgt=           1          16           1           1           1           1           1           1           1
 AtmWgt=   1.0078250  15.9949146   1.0078250   1.0078250   1.0078250   1.0078250   1.0078250   1.0078250   1.0078250
 NucSpn=           1           0           1           1           1           1           1           1           1
 AtZEff=  -0.0000000  -0.0000000  -0.0000000  -0.0000000  -0.0000000  -0.0000000  -0.0000000  -0.0000000  -0.0000000
 NQMom=    0.0000000   0.0000000   0.0000000   0.0000000   0.0000000   0.0000000   0.0000000   0.0000000   0.0000000
 NMagM=    2.7928460   0.0000000   2.7928460   2.7928460   2.7928460   2.7928460   2.7928460   2.7928460   2.7928460
 AtZNuc=   1.0000000   8.0000000   1.0000000   1.0000000   1.0000000   1.0000000   1.0000000   1.0000000   1.0000000
 Leave Link  101 at Sat May 14 11:14:48 2022, MaxMem=   104857600 cpu:               1.2 elap:               0.1
 (Enter /apps/software/g16/l202.exe)
                          Input orientation:                          
 ---------------------------------------------------------------------
 Center     Atomic      Atomic             Coordinates (Angstroms)
 Number     Number       Type             X           Y           Z
 ---------------------------------------------------------------------
      1         26           0       -0.642572    0.518039    0.115153
      2          8           0        0.111747    2.150274   -0.780033
      3          1           0        0.707668    2.715906   -0.253469
      4          8           0       -1.311938   -0.302544   -1.591540
      5          1           0       -1.936484    0.130931   -2.200908
      6          8           0        0.027209    1.339406    1.821227
      7          1           0        0.652588    0.906869    2.430403
      8          8           0       -1.396481   -1.114448    1.010239
      9          1           0       -1.993314   -1.679405    0.483975
     10          8           0       -2.286820    1.633408    0.410054
     11          1           0       -2.353770    2.472911   -0.083018
     12          8           0        1.001944   -0.597123   -0.179502
     13          1           0        1.068078   -1.437588    0.312025
     14          1           0       -3.189221    1.272802    0.480364
     15          1           0       -0.665220   -0.783520   -2.141795
     16          1           0        1.904546   -0.236783   -0.248450
     17          1           0        0.437767    2.171136   -1.697943
     18          1           0       -0.618756    1.821240    2.371599
     19          1           0       -1.721260   -1.135950    1.928569
 ---------------------------------------------------------------------
                    Distance matrix (angstroms):
                    1          2          3          4          5
     1  Fe   0.000000
     2  O    2.008617   0.000000
     3  H    2.605695   0.975875   0.000000
     4  O    2.008534   2.949871   3.870438   0.000000
     5  H    2.681081   3.208095   4.179253   0.974314   0.000000
     6  O    2.008467   2.726024   2.581112   4.017000   4.636169
     7  H    2.681233   3.485034   3.237100   4.636601   5.362314
     8  O    2.008625   4.017242   4.549287   2.726828   3.486264
     9  H    2.605627   4.549223   5.211323   2.582204   3.238694
    10  O    2.008623   2.727009   3.252541   2.950370   3.032704
    11  H    2.605570   2.582382   3.075793   3.326289   3.185035
    12  O    2.008691   2.949793   3.326896   2.726661   3.640124
    13  H    2.605678   3.870389   4.207279   3.252132   4.219298
    14  H    2.681132   3.640734   4.219811   3.209158   3.172135
    15  H    2.605452   3.326442   4.206731   0.975891   1.567108
    16  H    2.681376   3.032285   3.186051   3.486257   4.324444
    17  H    2.680891   0.974312   1.567204   3.031812   3.170563
    18  H    2.605849   3.251873   3.074216   4.549442   5.049887
    19  H    2.680994   4.636346   5.049532   3.640505   4.324799
                    6          7          8          9         10
     6  O    0.000000
     7  H    0.974311   0.000000
     8  O    2.950592   3.209559   0.000000
     9  H    3.870914   4.180692   0.975879   0.000000
    10  O    2.726276   3.640026   2.950194   3.326611   0.000000
    11  H    3.252698   4.219948   3.870498   4.206321   0.975893
    12  O    2.950113   3.032432   2.726820   3.253168   4.017314
    13  H    3.327581   3.186948   2.581854   3.075737   4.549282
    14  H    3.485365   4.323893   3.032103   3.185237   0.974324
    15  H    4.548825   5.049656   3.252626   3.075892   3.870796
    16  H    3.208166   3.170425   3.640244   4.220299   4.636680
    17  H    3.639353   4.322935   4.636138   5.049513   3.486571
    18  H    0.975881   1.567114   3.328125   4.207974   2.581739
    19  H    3.032499   3.171766   0.974307   1.567229   3.208597
                   11         12         13         14         15
    11  H    0.000000
    12  O    4.549201   0.000000
    13  H    5.211248   0.975886   0.000000
    14  H    1.567047   4.636584   5.049668   0.000000
    15  H    4.206436   2.581622   3.074632   4.180282   0.000000
    16  H    5.050056   0.974316   1.567082   5.362507   3.238421
    17  H    3.239094   3.207370   4.178536   4.325167   3.184898
    18  H    3.075726   3.870822   4.207994   3.238030   5.211300
    19  H    4.179764   3.485704   3.237994   3.170851   4.219868
                   16         17         18         19
    16  H    0.000000
    17  H    3.170260   0.000000
    18  H    4.179374   4.218986   0.000000
    19  H    4.323701   5.361884   3.186967   0.000000
 Stoichiometry    FeH12O6(2+)
 Framework group  C1[X(FeH12O6)]
 Deg. of freedom    51
 Full point group                 C1      NOp   1
 Largest Abelian subgroup         C1      NOp   1
 Largest concise Abelian subgroup C1      NOp   1
                         Standard orientation:                         
 ---------------------------------------------------------------------
 Center     Atomic      Atomic             Coordinates (Angstroms)
 Number     Number       Type             X           Y           Z
 ---------------------------------------------------------------------
      1         26           0        0.000065    0.000163   -0.000017
      2          8           0       -1.246719   -1.256779    0.948755
      3          1           0       -1.906773   -1.728539    0.406440
      4          8           0        1.248166    0.192856    1.561816
      5          1           0        0.978517    0.504619    2.444641
      6          8           0       -1.248574   -0.193244   -1.561244
      7          1           0       -0.979714   -0.505995   -2.443958
      8          8           0        1.247144    1.256732   -0.948912
      9          1           0        1.906411    1.729332   -0.406365
     10          8           0       -1.247341    1.449656    0.614407
     11          1           0       -1.905699    1.215874    1.295786
     12          8           0        1.247217   -1.449530   -0.614705
     13          1           0        1.906902   -1.215343   -1.294651
     14          1           0       -0.977458    2.370268    0.784533
     15          1           0        1.907641   -0.513331    1.698765
     16          1           0        0.977196   -2.369840   -0.786194
     17          1           0       -0.975734   -1.865439    1.659658
     18          1           0       -1.908858    0.512144   -1.698350
     19          1           0        0.976718    1.864477   -1.660803
 ---------------------------------------------------------------------
 Rotational constants (GHZ):           1.7156112           1.5579535           1.5576482
 Leave Link  202 at Sat May 14 11:14:48 2022, MaxMem=   104857600 cpu:               0.1 elap:               0.0
 (Enter /apps/software/g16/l301.exe)
 Standard basis: def2TZVP (5D, 7F)
 Ernie: Thresh=  0.10000D-02 Tol=  0.10000D-05 Strict=F.
 There are   340 symmetry adapted cartesian basis functions of A   symmetry.
 There are   303 symmetry adapted basis functions of A   symmetry.
   303 basis functions,   504 primitive gaussians,   340 cartesian basis functions
    42 alpha electrons       42 beta electrons
       nuclear repulsion energy       695.7934702665 Hartrees.
 IExCor=    0 DFT=F Ex=HF Corr=None ExCW=0 ScaHFX=  1.000000
 ScaDFX=  1.000000  1.000000  1.000000  1.000000 ScalE2=  1.000000  1.000000
 IRadAn=      5 IRanWt=     -1 IRanGd=            0 ICorTp=0 IEmpDi=  4
 NAtoms=   19 NActive=   19 NUniq=   19 SFac= 1.00D+00 NAtFMM=   60 NAOKFM=F Big=F
 Integral buffers will be    131072 words long.
 Raffenetti 1 integral format.
 Two-electron integral symmetry is turned on.
 Leave Link  301 at Sat May 14 11:14:48 2022, MaxMem=   104857600 cpu:               0.8 elap:               0.1
 (Enter /apps/software/g16/l302.exe)
 NPDir=0 NMtPBC=     1 NCelOv=     1 NCel=       1 NClECP=     1 NCelD=      1
         NCelK=      1 NCelE2=     1 NClLst=     1 CellRange=     0.0.
 One-electron integrals computed using PRISM.
 One-electron integral symmetry used in STVInt
 PrsmSu:  requested number of processors reduced to:  13 ShMem   1 Linda.
   1 Symmetry operations used in ECPInt.
 ECPInt:  NShTT=    8385 NPrTT=   26333 LenC2=    8206 LenP2D=   19816.
 LDataN:  DoStor=T MaxTD1= 6 Len=  172
 NBasis=   303 RedAO= T EigKep=  1.62D-03  NBF=   303
 NBsUse=   303 1.00D-06 EigRej= -1.00D+00 NBFU=   303
 Leave Link  302 at Sat May 14 11:14:48 2022, MaxMem=   104857600 cpu:               2.8 elap:               0.2
 (Enter /apps/software/g16/l303.exe)
 DipDrv:  MaxL=1.
 Leave Link  303 at Sat May 14 11:14:48 2022, MaxMem=   104857600 cpu:               0.5 elap:               0.1
 (Enter /apps/software/g16/l401.exe)
 ExpMin= 4.20D-02 ExpMax= 3.01D+05 ExpMxC= 2.91D+03 IAcc=3 IRadAn=         5 AccDes= 0.00D+00
 Harris functional with IExCor=  205 and IRadAn=       5 diagonalized for initial guess.
 HarFok:  IExCor=  205 AccDes= 0.00D+00 IRadAn=         5 IDoV= 1 UseB2=F ITyADJ=14
 ICtDFT=  3500011 ScaDFX=  1.000000  1.000000  1.000000  1.000000
 FoFCou: FMM=F IPFlag=           0 FMFlag=      100000 FMFlg1=           0
         NFxFlg=           0 DoJE=T BraDBF=F KetDBF=T FulRan=T
         wScrn=  0.000000 ICntrl=       500 IOpCl=  0 I1Cent=   200000004 NGrid=           0
         NMat0=    1 NMatS0=      1 NMatT0=    0 NMatD0=    1 NMtDS0=    0 NMtDT0=    0
 Petite list used in FoFCou.
 Harris En= -1718.41756186244    
 JPrj=0 DoOrth=F DoCkMO=T.
 Mixing orbitals, IMix= 1 IMixAn=  0 NRI=1 NE=   42 Coef=  7.07106781D-01  7.07106781D-01
 Leave Link  401 at Sat May 14 11:14:48 2022, MaxMem=   104857600 cpu:               6.5 elap:               0.4
 (Enter /apps/software/g16/l502.exe)
 Integral symmetry usage will be decided dynamically.
 Closed shell SCF:
 Using DIIS extrapolation, IDIIS=  1040.
 NGot=   104857600 LenX=   104617651 LenY=   104501610
 Requested convergence on RMS density matrix=1.00D-08 within 128 cycles.
 Requested convergence on MAX density matrix=1.00D-06.
 Requested convergence on             energy=1.00D-06.
 No special actions if energy rises.
 Fock matrices will be formed incrementally for  20 cycles.

 Cycle   1  Pass 0  IDiag  1:
 FoFJK:  IHMeth= 1 ICntrl=       0 DoSepK=F KAlg= 0 I1Cent=           0 FoldK=F
 IRaf= 950000000 NMat=       1 IRICut=       1 DoRegI=T DoRafI=F ISym2E= 0 IDoP0=0 IntGTp=1.
 FoFCou: FMM=F IPFlag=           0 FMFlag=      100000 FMFlg1=           0
         NFxFlg=           0 DoJE=F BraDBF=F KetDBF=F FulRan=T
         wScrn=  0.000000 ICntrl=         0 IOpCl=  0 I1Cent=           0 NGrid=           0
         NMat0=    1 NMatS0=      1 NMatT0=    0 NMatD0=    1 NMtDS0=    0 NMtDT0=    0
 Symmetry not used in FoFCou.
 E= -1717.78196822129    
 DIIS: error= 6.91D-02 at cycle   1 NSaved=   1.
 NSaved= 1 IEnMin= 1 EnMin= -1717.78196822129     IErMin= 1 ErrMin= 6.91D-02
 ErrMax= 6.91D-02  0.00D+00 EMaxC= 1.00D-01 BMatC= 1.14D+00 BMatP= 1.14D+00
 IDIUse=3 WtCom= 3.09D-01 WtEn= 6.91D-01
 Coeff-Com:  0.100D+01
 Coeff-En:   0.100D+01
 Coeff:      0.100D+01
 Gap=     0.644 Goal=   None    Shift=    0.000
 GapD=    0.644 DampG=2.000 DampE=0.250 DampFc=0.5000 IDamp=-1.
 Damping current iteration by 5.00D-01
 RMSDP=1.81D-03 MaxDP=9.19D-02              OVMax= 1.05D-01

 Cycle   2  Pass 0  IDiag  1:
 RMSU=  8.97D-04    CP:  9.92D-01
 E= -1718.00247903726     Delta-E=       -0.220510815961 Rises=F Damp=T
 DIIS: error= 3.28D-02 at cycle   2 NSaved=   2.
 NSaved= 2 IEnMin= 2 EnMin= -1718.00247903726     IErMin= 2 ErrMin= 3.28D-02
 ErrMax= 3.28D-02  0.00D+00 EMaxC= 1.00D-01 BMatC= 2.35D-01 BMatP= 1.14D+00
 IDIUse=3 WtCom= 6.72D-01 WtEn= 3.28D-01
 Coeff-Com: -0.569D+00 0.157D+01
 Coeff-En:   0.000D+00 0.100D+01
 Coeff:     -0.383D+00 0.138D+01
 Gap=     0.529 Goal=   None    Shift=    0.000
 RMSDP=7.57D-04 MaxDP=4.07D-02 DE=-2.21D-01 OVMax= 4.98D-02

 Cycle   3  Pass 0  IDiag  1:
 RMSU=  6.26D-04    CP:  9.89D-01  1.47D+00
 E= -1718.23746351945     Delta-E=       -0.234984482190 Rises=F Damp=F
 DIIS: error= 8.74D-03 at cycle   3 NSaved=   3.
 NSaved= 3 IEnMin= 3 EnMin= -1718.23746351945     IErMin= 3 ErrMin= 8.74D-03
 ErrMax= 8.74D-03  0.00D+00 EMaxC= 1.00D-01 BMatC= 1.01D-02 BMatP= 2.35D-01
 IDIUse=3 WtCom= 9.13D-01 WtEn= 8.74D-02
 Coeff-Com: -0.126D+00 0.197D+00 0.929D+00
 Coeff-En:   0.000D+00 0.000D+00 0.100D+01
 Coeff:     -0.115D+00 0.179D+00 0.935D+00
 Gap=     0.557 Goal=   None    Shift=    0.000
 RMSDP=2.82D-04 MaxDP=1.90D-02 DE=-2.35D-01 OVMax= 4.50D-02

 Cycle   4  Pass 0  IDiag  1:
 RMSU=  2.07D-04    CP:  9.87D-01  1.60D+00  1.25D+00
 E= -1718.25852702144     Delta-E=       -0.021063501995 Rises=F Damp=F
 DIIS: error= 8.16D-03 at cycle   4 NSaved=   4.
 NSaved= 4 IEnMin= 4 EnMin= -1718.25852702144     IErMin= 4 ErrMin= 8.16D-03
 ErrMax= 8.16D-03  0.00D+00 EMaxC= 1.00D-01 BMatC= 3.77D-03 BMatP= 1.01D-02
 IDIUse=3 WtCom= 9.18D-01 WtEn= 8.16D-02
 Coeff-Com:  0.140D-01-0.333D-01 0.251D-01 0.994D+00
 Coeff-En:   0.000D+00 0.000D+00 0.000D+00 0.100D+01
 Coeff:      0.128D-01-0.306D-01 0.230D-01 0.995D+00
 Gap=     0.549 Goal=   None    Shift=    0.000
 RMSDP=2.08D-04 MaxDP=1.66D-02 DE=-2.11D-02 OVMax= 4.50D-02

 Cycle   5  Pass 0  IDiag  1:
 RMSU=  1.18D-04    CP:  9.86D-01  1.63D+00  1.41D+00  1.64D+00
 E= -1718.27187767752     Delta-E=       -0.013350656083 Rises=F Damp=F
 DIIS: error= 7.77D-03 at cycle   5 NSaved=   5.
 NSaved= 5 IEnMin= 5 EnMin= -1718.27187767752     IErMin= 5 ErrMin= 7.77D-03
 ErrMax= 7.77D-03  0.00D+00 EMaxC= 1.00D-01 BMatC= 2.82D-03 BMatP= 3.77D-03
 IDIUse=3 WtCom= 9.22D-01 WtEn= 7.77D-02
 Coeff-Com:  0.528D-01-0.854D-01-0.356D+00 0.290D+00 0.110D+01
 Coeff-En:   0.000D+00 0.000D+00 0.000D+00 0.000D+00 0.100D+01
 Coeff:      0.487D-01-0.787D-01-0.328D+00 0.267D+00 0.109D+01
 Gap=     0.569 Goal=   None    Shift=    0.000
 RMSDP=2.63D-04 MaxDP=2.19D-02 DE=-1.34D-02 OVMax= 6.40D-02

 Cycle   6  Pass 0  IDiag  1:
 RMSU=  7.16D-05    CP:  9.85D-01  1.67D+00  1.59D+00  2.57D+00  1.95D+00
 E= -1718.28659559863     Delta-E=       -0.014717921110 Rises=F Damp=F
 DIIS: error= 6.89D-03 at cycle   6 NSaved=   6.
 NSaved= 6 IEnMin= 6 EnMin= -1718.28659559863     IErMin= 6 ErrMin= 6.89D-03
 ErrMax= 6.89D-03  0.00D+00 EMaxC= 1.00D-01 BMatC= 1.88D-03 BMatP= 2.82D-03
 IDIUse=3 WtCom= 9.31D-01 WtEn= 6.89D-02
 Coeff-Com: -0.925D-01 0.171D+00 0.556D+00-0.131D+01-0.160D+01 0.328D+01
 Coeff-En:   0.000D+00 0.000D+00 0.000D+00 0.000D+00 0.000D+00 0.100D+01
 Coeff:     -0.861D-01 0.159D+00 0.518D+00-0.122D+01-0.149D+01 0.312D+01
 Gap=     0.592 Goal=   None    Shift=    0.000
 RMSDP=5.86D-04 MaxDP=4.42D-02 DE=-1.47D-02 OVMax= 1.32D-01

 Cycle   7  Pass 0  IDiag  1:
 RMSU=  3.75D-04    CP:  9.81D-01  1.71D+00  1.86D+00  3.00D+00  3.00D+00
                    CP:  3.00D+00
 E= -1718.31016598339     Delta-E=       -0.023570384760 Rises=F Damp=F
 DIIS: error= 4.14D-03 at cycle   7 NSaved=   7.
 NSaved= 7 IEnMin= 7 EnMin= -1718.31016598339     IErMin= 7 ErrMin= 4.14D-03
 ErrMax= 4.14D-03  0.00D+00 EMaxC= 1.00D-01 BMatC= 7.47D-04 BMatP= 1.88D-03
 IDIUse=3 WtCom= 9.59D-01 WtEn= 4.14D-02
 Coeff-Com: -0.755D-02 0.761D-02 0.501D-01 0.119D+00 0.541D+00-0.130D+01
 Coeff-Com:  0.159D+01
 Coeff-En:   0.000D+00 0.000D+00 0.000D+00 0.000D+00 0.000D+00 0.000D+00
 Coeff-En:   0.100D+01
 Coeff:     -0.724D-02 0.729D-02 0.480D-01 0.115D+00 0.519D+00-0.124D+01
 Coeff:      0.156D+01
 Gap=     0.595 Goal=   None    Shift=    0.000
 RMSDP=2.07D-04 MaxDP=1.64D-02 DE=-2.36D-02 OVMax= 5.94D-02

 Cycle   8  Pass 0  IDiag  1:
 RMSU=  1.00D-04    CP:  9.79D-01  1.73D+00  1.89D+00  3.00D+00  3.00D+00
                    CP:  3.00D+00  1.48D+00
 E= -1718.31539570387     Delta-E=       -0.005229720472 Rises=F Damp=F
 DIIS: error= 3.05D-03 at cycle   8 NSaved=   8.
 NSaved= 8 IEnMin= 8 EnMin= -1718.31539570387     IErMin= 8 ErrMin= 3.05D-03
 ErrMax= 3.05D-03  0.00D+00 EMaxC= 1.00D-01 BMatC= 3.39D-04 BMatP= 7.47D-04
 IDIUse=3 WtCom= 9.70D-01 WtEn= 3.05D-02
 Coeff-Com:  0.146D-01-0.264D-01-0.910D-01 0.250D+00 0.571D-01-0.608D+00
 Coeff-Com: -0.785D-01 0.148D+01
 Coeff-En:   0.000D+00 0.000D+00 0.000D+00 0.000D+00 0.000D+00 0.000D+00
 Coeff-En:   0.000D+00 0.100D+01
 Coeff:      0.141D-01-0.256D-01-0.882D-01 0.242D+00 0.553D-01-0.589D+00
 Coeff:     -0.761D-01 0.147D+01
 Gap=     0.608 Goal=   None    Shift=    0.000
 RMSDP=2.74D-04 MaxDP=2.00D-02 DE=-5.23D-03 OVMax= 7.02D-02

 Cycle   9  Pass 0  IDiag  1:
 RMSU=  6.97D-05    CP:  9.78D-01  1.73D+00  1.96D+00  3.00D+00  3.00D+00
                    CP:  3.00D+00  2.09D+00  2.17D+00
 E= -1718.31944074372     Delta-E=       -0.004045039855 Rises=F Damp=F
 DIIS: error= 1.53D-03 at cycle   9 NSaved=   9.
 NSaved= 9 IEnMin= 9 EnMin= -1718.31944074372     IErMin= 9 ErrMin= 1.53D-03
 ErrMax= 1.53D-03  0.00D+00 EMaxC= 1.00D-01 BMatC= 2.10D-04 BMatP= 3.39D-04
 IDIUse=3 WtCom= 9.85D-01 WtEn= 1.53D-02
 Coeff-Com:  0.123D-01-0.203D-01-0.762D-01 0.496D-01 0.275D+00 0.368D-01
 Coeff-Com: -0.600D+00-0.130D+00 0.145D+01
 Coeff-En:   0.000D+00 0.000D+00 0.000D+00 0.000D+00 0.000D+00 0.000D+00
 Coeff-En:   0.000D+00 0.000D+00 0.100D+01
 Coeff:      0.121D-01-0.200D-01-0.750D-01 0.489D-01 0.271D+00 0.362D-01
 Coeff:     -0.591D+00-0.128D+00 0.145D+01
 Gap=     0.603 Goal=   None    Shift=    0.000
 RMSDP=9.38D-05 MaxDP=7.88D-03 DE=-4.05D-03 OVMax= 1.85D-02

 Cycle  10  Pass 0  IDiag  1:
 RMSU=  6.78D-05    CP:  9.77D-01  1.73D+00  1.96D+00  3.00D+00  3.00D+00
                    CP:  3.00D+00  2.14D+00  2.79D+00  1.03D+00
 E= -1718.32071485291     Delta-E=       -0.001274109191 Rises=F Damp=F
 DIIS: error= 1.43D-03 at cycle  10 NSaved=  10.
 NSaved=10 IEnMin=10 EnMin= -1718.32071485291     IErMin=10 ErrMin= 1.43D-03
 ErrMax= 1.43D-03  0.00D+00 EMaxC= 1.00D-01 BMatC= 1.78D-04 BMatP= 2.10D-04
 IDIUse=3 WtCom= 9.86D-01 WtEn= 1.43D-02
 Coeff-Com: -0.138D-01 0.243D-01 0.960D-01-0.180D+00 0.635D-02 0.405D+00
 Coeff-Com:  0.304D+00-0.191D+01 0.826D+00 0.144D+01
 Coeff-En:   0.000D+00 0.000D+00 0.000D+00 0.000D+00 0.000D+00 0.000D+00
 Coeff-En:   0.000D+00 0.000D+00 0.000D+00 0.100D+01
 Coeff:     -0.136D-01 0.240D-01 0.946D-01-0.177D+00 0.626D-02 0.399D+00
 Coeff:      0.300D+00-0.188D+01 0.814D+00 0.143D+01
 Gap=     0.586 Goal=   None    Shift=    0.000
 RMSDP=1.43D-04 MaxDP=1.22D-02 DE=-1.27D-03 OVMax= 3.13D-02

 Cycle  11  Pass 0  IDiag  1:
 RMSU=  7.12D-05    CP:  9.77D-01  1.73D+00  1.96D+00  3.00D+00  3.00D+00
                    CP:  3.00D+00  2.29D+00  3.00D+00  1.60D+00  2.27D+00
 E= -1718.32240335819     Delta-E=       -0.001688505281 Rises=F Damp=F
 DIIS: error= 1.08D-03 at cycle  11 NSaved=  11.
 NSaved=11 IEnMin=11 EnMin= -1718.32240335819     IErMin=11 ErrMin= 1.08D-03
 ErrMax= 1.08D-03  0.00D+00 EMaxC= 1.00D-01 BMatC= 1.54D-04 BMatP= 1.78D-04
 IDIUse=3 WtCom= 9.89D-01 WtEn= 1.08D-02
 Coeff-Com: -0.106D-02 0.595D-03 0.526D-02 0.399D-01 0.216D+00-0.366D+00
 Coeff-Com:  0.534D+00-0.680D+00 0.465D+00-0.140D+01 0.218D+01
 Coeff-En:   0.000D+00 0.000D+00 0.000D+00 0.000D+00 0.000D+00 0.000D+00
 Coeff-En:   0.000D+00 0.000D+00 0.000D+00 0.000D+00 0.100D+01
 Coeff:     -0.105D-02 0.588D-03 0.521D-02 0.395D-01 0.214D+00-0.362D+00
 Coeff:      0.528D+00-0.672D+00 0.460D+00-0.138D+01 0.217D+01
 Gap=     0.597 Goal=   None    Shift=    0.000
 RMSDP=1.68D-04 MaxDP=1.46D-02 DE=-1.69D-03 OVMax= 3.63D-02

 Cycle  12  Pass 0  IDiag  1:
 RMSU=  5.68D-05    CP:  9.76D-01  1.72D+00  1.96D+00  3.00D+00  3.00D+00
                    CP:  3.00D+00  2.43D+00  3.00D+00  2.47D+00  3.00D+00
                    CP:  2.47D+00
 E= -1718.32394983065     Delta-E=       -0.001546472452 Rises=F Damp=F
 DIIS: error= 7.47D-04 at cycle  12 NSaved=  12.
 NSaved=12 IEnMin=12 EnMin= -1718.32394983065     IErMin=12 ErrMin= 7.47D-04
 ErrMax= 7.47D-04  0.00D+00 EMaxC= 1.00D-01 BMatC= 5.92D-05 BMatP= 1.54D-04
 IDIUse=3 WtCom= 9.93D-01 WtEn= 7.47D-03
 Coeff-Com:  0.124D-01-0.220D-01-0.891D-01 0.138D+00 0.215D+00-0.496D+00
 Coeff-Com: -0.106D+00 0.114D+01-0.106D+00-0.197D+01 0.383D+00 0.190D+01
 Coeff-En:   0.000D+00 0.000D+00 0.000D+00 0.000D+00 0.000D+00 0.000D+00
 Coeff-En:   0.000D+00 0.000D+00 0.000D+00 0.000D+00 0.000D+00 0.100D+01
 Coeff:      0.124D-01-0.218D-01-0.884D-01 0.137D+00 0.213D+00-0.492D+00
 Coeff:     -0.105D+00 0.113D+01-0.105D+00-0.195D+01 0.380D+00 0.189D+01
 Gap=     0.612 Goal=   None    Shift=    0.000
 RMSDP=2.15D-04 MaxDP=1.88D-02 DE=-1.55D-03 OVMax= 5.23D-02

 Cycle  13  Pass 0  IDiag  1:
 RMSU=  1.08D-04    CP:  9.75D-01  1.72D+00  1.94D+00  3.00D+00  3.00D+00
                    CP:  3.00D+00  2.53D+00  3.00D+00  3.00D+00  3.00D+00
                    CP:  3.00D+00  3.00D+00
 E= -1718.32508915672     Delta-E=       -0.001139326073 Rises=F Damp=F
 DIIS: error= 4.90D-04 at cycle  13 NSaved=  13.
 NSaved=13 IEnMin=13 EnMin= -1718.32508915672     IErMin=13 ErrMin= 4.90D-04
 ErrMax= 4.90D-04  0.00D+00 EMaxC= 1.00D-01 BMatC= 4.23D-05 BMatP= 5.92D-05
 IDIUse=3 WtCom= 9.95D-01 WtEn= 4.90D-03
 Coeff-Com: -0.494D-02 0.882D-02 0.314D-01-0.508D-01-0.157D+00 0.586D-01
 Coeff-Com:  0.276D-02 0.502D+00-0.757D+00 0.586D+00-0.129D+00-0.428D+00
 Coeff-Com:  0.134D+01
 Coeff-En:   0.000D+00 0.000D+00 0.000D+00 0.000D+00 0.000D+00 0.000D+00
 Coeff-En:   0.000D+00 0.000D+00 0.000D+00 0.000D+00 0.000D+00 0.000D+00
 Coeff-En:   0.100D+01
 Coeff:     -0.491D-02 0.878D-02 0.312D-01-0.506D-01-0.156D+00 0.583D-01
 Coeff:      0.274D-02 0.500D+00-0.753D+00 0.583D+00-0.129D+00-0.426D+00
 Coeff:      0.134D+01
 Gap=     0.604 Goal=   None    Shift=    0.000
 RMSDP=3.79D-05 MaxDP=2.54D-03 DE=-1.14D-03 OVMax= 7.95D-03

 Cycle  14  Pass 0  IDiag  1:
 RMSU=  2.39D-05    CP:  9.75D-01  1.71D+00  1.94D+00  3.00D+00  3.00D+00
                    CP:  3.00D+00  2.55D+00  3.00D+00  3.00D+00  3.00D+00
                    CP:  3.00D+00  3.00D+00  1.27D+00
 E= -1718.32523484325     Delta-E=       -0.000145686527 Rises=F Damp=F
 DIIS: error= 4.13D-04 at cycle  14 NSaved=  14.
 NSaved=14 IEnMin=14 EnMin= -1718.32523484325     IErMin=14 ErrMin= 4.13D-04
 ErrMax= 4.13D-04  0.00D+00 EMaxC= 1.00D-01 BMatC= 3.74D-05 BMatP= 4.23D-05
 IDIUse=3 WtCom= 9.96D-01 WtEn= 4.13D-03
 Coeff-Com:  0.132D-02-0.235D-02-0.129D-01 0.384D-01-0.123D+00-0.297D-04
 Coeff-Com: -0.774D-01 0.584D+00-0.573D+00-0.156D+00 0.413D+00-0.157D+00
 Coeff-Com: -0.657D+00 0.172D+01
 Coeff-En:   0.000D+00 0.000D+00 0.000D+00 0.000D+00 0.000D+00 0.000D+00
 Coeff-En:   0.000D+00 0.000D+00 0.000D+00 0.000D+00 0.000D+00 0.000D+00
 Coeff-En:   0.000D+00 0.100D+01
 Coeff:      0.132D-02-0.234D-02-0.129D-01 0.383D-01-0.122D+00-0.296D-04
 Coeff:     -0.771D-01 0.582D+00-0.571D+00-0.155D+00 0.411D+00-0.157D+00
 Coeff:     -0.655D+00 0.172D+01
 Gap=     0.604 Goal=   None    Shift=    0.000
 RMSDP=5.59D-05 MaxDP=4.03D-03 DE=-1.46D-04 OVMax= 1.18D-02

 Cycle  15  Pass 0  IDiag  1:
 RMSU=  8.81D-06    CP:  9.75D-01  1.71D+00  1.94D+00  3.00D+00  3.00D+00
                    CP:  3.00D+00  2.57D+00  3.00D+00  3.00D+00  3.00D+00
                    CP:  3.00D+00  3.00D+00  1.69D+00  2.22D+00
 E= -1718.32538687440     Delta-E=       -0.000152031151 Rises=F Damp=F
 DIIS: error= 4.11D-04 at cycle  15 NSaved=  15.
 NSaved=15 IEnMin=15 EnMin= -1718.32538687440     IErMin=15 ErrMin= 4.11D-04
 ErrMax= 4.11D-04  0.00D+00 EMaxC= 1.00D-01 BMatC= 2.94D-05 BMatP= 3.74D-05
 IDIUse=3 WtCom= 9.96D-01 WtEn= 4.11D-03
 Coeff-Com:  0.324D-02-0.612D-02-0.234D-01 0.573D-01 0.119D+00-0.280D+00
 Coeff-Com:  0.150D+00 0.210D+00-0.134D-01-0.861D+00 0.766D+00 0.415D+00
 Coeff-Com: -0.836D+00-0.232D+01 0.362D+01
 Coeff-En:   0.000D+00 0.000D+00 0.000D+00 0.000D+00 0.000D+00 0.000D+00
 Coeff-En:   0.000D+00 0.000D+00 0.000D+00 0.000D+00 0.000D+00 0.000D+00
 Coeff-En:   0.000D+00 0.000D+00 0.100D+01
 Coeff:      0.323D-02-0.610D-02-0.233D-01 0.570D-01 0.118D+00-0.279D+00
 Coeff:      0.149D+00 0.209D+00-0.134D-01-0.858D+00 0.763D+00 0.413D+00
 Coeff:     -0.833D+00-0.231D+01 0.361D+01
 Gap=     0.603 Goal=   None    Shift=    0.000
 RMSDP=8.03D-05 MaxDP=4.26D-03 DE=-1.52D-04 OVMax= 1.82D-02

 Cycle  16  Pass 0  IDiag  1:
 RMSU=  4.02D-05    CP:  9.75D-01  1.71D+00  1.93D+00  3.00D+00  3.00D+00
                    CP:  3.00D+00  2.59D+00  3.00D+00  3.00D+00  3.00D+00
                    CP:  3.00D+00  3.00D+00  2.19D+00  3.00D+00  2.30D+00
 E= -1718.32553181106     Delta-E=       -0.000144936664 Rises=F Damp=F
 DIIS: error= 7.04D-05 at cycle  16 NSaved=  16.
 NSaved=16 IEnMin=16 EnMin= -1718.32553181106     IErMin=16 ErrMin= 7.04D-05
 ErrMax= 7.04D-05  0.00D+00 EMaxC= 1.00D-01 BMatC= 4.71D-07 BMatP= 2.94D-05
 IDIUse=1 WtCom= 1.00D+00 WtEn= 0.00D+00
 Coeff-Com: -0.345D-03 0.667D-03 0.239D-02-0.341D-02-0.627D-02 0.114D-01
 Coeff-Com: -0.443D-02-0.867D-02 0.415D-02 0.860D-01-0.117D+00-0.214D-01
 Coeff-Com:  0.195D+00-0.169D+00-0.164D+00 0.120D+01
 Coeff:     -0.345D-03 0.667D-03 0.239D-02-0.341D-02-0.627D-02 0.114D-01
 Coeff:     -0.443D-02-0.867D-02 0.415D-02 0.860D-01-0.117D+00-0.214D-01
 Coeff:      0.195D+00-0.169D+00-0.164D+00 0.120D+01
 Gap=     0.603 Goal=   None    Shift=    0.000
 RMSDP=2.02D-05 MaxDP=1.26D-03 DE=-1.45D-04 OVMax= 5.49D-03

 Cycle  17  Pass 0  IDiag  1:
 RMSU=  4.39D-06    CP:  9.75D-01  1.71D+00  1.93D+00  3.00D+00  3.00D+00
                    CP:  3.00D+00  2.59D+00  3.00D+00  3.00D+00  3.00D+00
                    CP:  3.00D+00  3.00D+00  2.33D+00  3.00D+00  2.67D+00
                    CP:  1.29D+00
 E= -1718.32553810363     Delta-E=       -0.000006292571 Rises=F Damp=F
 DIIS: error= 2.19D-05 at cycle  17 NSaved=  17.
 NSaved=17 IEnMin=17 EnMin= -1718.32553810363     IErMin=17 ErrMin= 2.19D-05
 ErrMax= 2.19D-05  0.00D+00 EMaxC= 1.00D-01 BMatC= 7.49D-08 BMatP= 4.71D-07
 IDIUse=1 WtCom= 1.00D+00 WtEn= 0.00D+00
 Coeff-Com: -0.464D-03 0.889D-03 0.324D-02-0.794D-02-0.144D-01 0.363D-01
 Coeff-Com: -0.192D-01-0.303D-01 0.598D-02 0.126D+00-0.124D+00-0.542D-01
 Coeff-Com:  0.151D+00 0.234D+00-0.475D+00 0.248D+00 0.919D+00
 Coeff:     -0.464D-03 0.889D-03 0.324D-02-0.794D-02-0.144D-01 0.363D-01
 Coeff:     -0.192D-01-0.303D-01 0.598D-02 0.126D+00-0.124D+00-0.542D-01
 Coeff:      0.151D+00 0.234D+00-0.475D+00 0.248D+00 0.919D+00
 Gap=     0.603 Goal=   None    Shift=    0.000
 RMSDP=3.07D-06 MaxDP=1.86D-04 DE=-6.29D-06 OVMax= 7.30D-04

 Initial convergence to 1.0D-05 achieved.  Increase integral accuracy.
 Cycle  18  Pass 1  IDiag  1:
 E= -1718.32553837287     Delta-E=       -0.000000269234 Rises=F Damp=F
 DIIS: error= 1.99D-05 at cycle   1 NSaved=   1.
 NSaved= 1 IEnMin= 1 EnMin= -1718.32553837287     IErMin= 1 ErrMin= 1.99D-05
 ErrMax= 1.99D-05  0.00D+00 EMaxC= 1.00D-01 BMatC= 3.25D-08 BMatP= 3.25D-08
 IDIUse=1 WtCom= 1.00D+00 WtEn= 0.00D+00
 Coeff-Com:  0.100D+01
 Coeff:      0.100D+01
 Gap=     0.603 Goal=   None    Shift=    0.000
 RMSDP=3.07D-06 MaxDP=1.86D-04 DE=-2.69D-07 OVMax= 1.02D-04

 Cycle  19  Pass 1  IDiag  1:
 RMSU=  5.62D-07    CP:  1.00D+00
 E= -1718.32553847641     Delta-E=       -0.000000103541 Rises=F Damp=F
 DIIS: error= 1.88D-05 at cycle   2 NSaved=   2.
 NSaved= 2 IEnMin= 2 EnMin= -1718.32553847641     IErMin= 2 ErrMin= 1.88D-05
 ErrMax= 1.88D-05  0.00D+00 EMaxC= 1.00D-01 BMatC= 2.33D-08 BMatP= 3.25D-08
 IDIUse=1 WtCom= 1.00D+00 WtEn= 0.00D+00
 Coeff-Com:  0.808D-01 0.919D+00
 Coeff:      0.808D-01 0.919D+00
 Gap=     0.603 Goal=   None    Shift=    0.000
 RMSDP=4.55D-07 MaxDP=3.03D-05 DE=-1.04D-07 OVMax= 8.34D-05

 Cycle  20  Pass 1  IDiag  1:
 RMSU=  1.82D-07    CP:  1.00D+00  1.74D+00
 E= -1718.32553855509     Delta-E=       -0.000000078684 Rises=F Damp=F
 DIIS: error= 1.79D-05 at cycle   3 NSaved=   3.
 NSaved= 3 IEnMin= 3 EnMin= -1718.32553855509     IErMin= 3 ErrMin= 1.79D-05
 ErrMax= 1.79D-05  0.00D+00 EMaxC= 1.00D-01 BMatC= 1.94D-08 BMatP= 2.33D-08
 IDIUse=1 WtCom= 1.00D+00 WtEn= 0.00D+00
 Coeff-Com: -0.636D+00-0.132D+00 0.177D+01
 Coeff:     -0.636D+00-0.132D+00 0.177D+01
 Gap=     0.603 Goal=   None    Shift=    0.000
 RMSDP=1.08D-06 MaxDP=7.34D-05 DE=-7.87D-08 OVMax= 2.07D-04

 Cycle  21  Pass 1  IDiag  1:
 RMSU=  3.63D-07    CP:  1.00D+00  3.00D+00  2.59D+00
 E= -1718.32553872323     Delta-E=       -0.000000168139 Rises=F Damp=F
 DIIS: error= 1.56D-05 at cycle   4 NSaved=   4.
 NSaved= 4 IEnMin= 4 EnMin= -1718.32553872323     IErMin= 4 ErrMin= 1.56D-05
 ErrMax= 1.56D-05  0.00D+00 EMaxC= 1.00D-01 BMatC= 1.37D-08 BMatP= 1.94D-08
 IDIUse=1 WtCom= 1.00D+00 WtEn= 0.00D+00
 Coeff-Com:  0.382D+00-0.114D+01-0.148D+01 0.323D+01
 Coeff:      0.382D+00-0.114D+01-0.148D+01 0.323D+01
 Gap=     0.603 Goal=   None    Shift=    0.000
 RMSDP=2.76D-06 MaxDP=1.81D-04 DE=-1.68D-07 OVMax= 6.22D-04

 Cycle  22  Pass 1  IDiag  1:
 RMSU=  2.09D-06    CP:  1.00D+00  3.00D+00  3.00D+00  3.00D+00
 E= -1718.32553902731     Delta-E=       -0.000000304085 Rises=F Damp=F
 DIIS: error= 9.48D-06 at cycle   5 NSaved=   5.
 NSaved= 5 IEnMin= 5 EnMin= -1718.32553902731     IErMin= 5 ErrMin= 9.48D-06
 ErrMax= 9.48D-06  0.00D+00 EMaxC= 1.00D-01 BMatC= 6.02D-09 BMatP= 1.37D-08
 IDIUse=1 WtCom= 1.00D+00 WtEn= 0.00D+00
 Coeff-Com:  0.395D+00-0.176D+00-0.132D+01 0.928D+00 0.117D+01
 Coeff:      0.395D+00-0.176D+00-0.132D+01 0.928D+00 0.117D+01
 Gap=     0.603 Goal=   None    Shift=    0.000
 RMSDP=1.48D-06 MaxDP=9.71D-05 DE=-3.04D-07 OVMax= 3.50D-04

 Cycle  23  Pass 1  IDiag  1:
 RMSU=  2.78D-07    CP:  1.00D+00  3.00D+00  3.00D+00  3.00D+00  1.69D+00
 E= -1718.32553912421     Delta-E=       -0.000000096893 Rises=F Damp=F
 DIIS: error= 6.37D-06 at cycle   6 NSaved=   6.
 NSaved= 6 IEnMin= 6 EnMin= -1718.32553912421     IErMin= 6 ErrMin= 6.37D-06
 ErrMax= 6.37D-06  0.00D+00 EMaxC= 1.00D-01 BMatC= 3.30D-09 BMatP= 6.02D-09
 IDIUse=1 WtCom= 1.00D+00 WtEn= 0.00D+00
 Coeff-Com: -0.225D+00 0.572D+00 0.809D+00-0.160D+01-0.171D+00 0.162D+01
 Coeff:     -0.225D+00 0.572D+00 0.809D+00-0.160D+01-0.171D+00 0.162D+01
 Gap=     0.603 Goal=   None    Shift=    0.000
 RMSDP=9.74D-07 MaxDP=6.77D-05 DE=-9.69D-08 OVMax= 2.39D-04

 Cycle  24  Pass 1  IDiag  1:
 RMSU=  1.83D-07    CP:  1.00D+00  3.00D+00  3.00D+00  3.00D+00  2.13D+00
                    CP:  2.04D+00
 E= -1718.32553917175     Delta-E=       -0.000000047544 Rises=F Damp=F
 DIIS: error= 5.47D-06 at cycle   7 NSaved=   7.
 NSaved= 7 IEnMin= 7 EnMin= -1718.32553917175     IErMin= 7 ErrMin= 5.47D-06
 ErrMax= 5.47D-06  0.00D+00 EMaxC= 1.00D-01 BMatC= 1.93D-09 BMatP= 3.30D-09
 IDIUse=1 WtCom= 1.00D+00 WtEn= 0.00D+00
 Coeff-Com: -0.494D-01-0.686D+00 0.172D+00 0.130D+01-0.729D+00-0.229D+01
 Coeff-Com:  0.329D+01
 Coeff:     -0.494D-01-0.686D+00 0.172D+00 0.130D+01-0.729D+00-0.229D+01
 Coeff:      0.329D+01
 Gap=     0.603 Goal=   None    Shift=    0.000
 RMSDP=1.26D-06 MaxDP=8.69D-05 DE=-4.75D-08 OVMax= 2.88D-04

 Cycle  25  Pass 1  IDiag  1:
 RMSU=  2.83D-07    CP:  1.00D+00  3.00D+00  3.00D+00  3.00D+00  2.63D+00
                    CP:  3.00D+00  3.00D+00
 E= -1718.32553921300     Delta-E=       -0.000000041246 Rises=F Damp=F
 DIIS: error= 2.40D-06 at cycle   8 NSaved=   8.
 NSaved= 8 IEnMin= 8 EnMin= -1718.32553921300     IErMin= 8 ErrMin= 2.40D-06
 ErrMax= 2.40D-06  0.00D+00 EMaxC= 1.00D-01 BMatC= 3.71D-10 BMatP= 1.93D-09
 IDIUse=1 WtCom= 1.00D+00 WtEn= 0.00D+00
 Coeff-Com:  0.105D+00-0.229D+00-0.443D+00 0.745D+00 0.132D+00-0.593D+00
 Coeff-Com: -0.341D+00 0.162D+01
 Coeff:      0.105D+00-0.229D+00-0.443D+00 0.745D+00 0.132D+00-0.593D+00
 Coeff:     -0.341D+00 0.162D+01
 Gap=     0.603 Goal=   None    Shift=    0.000
 RMSDP=7.36D-07 MaxDP=4.97D-05 DE=-4.12D-08 OVMax= 1.40D-04

 Cycle  26  Pass 1  IDiag  1:
 RMSU=  1.75D-07    CP:  1.00D+00  3.00D+00  3.00D+00  3.00D+00  2.91D+00
                    CP:  3.00D+00  3.00D+00  2.46D+00
 E= -1718.32553922067     Delta-E=       -0.000000007674 Rises=F Damp=F
 DIIS: error= 3.22D-07 at cycle   9 NSaved=   9.
 NSaved= 9 IEnMin= 9 EnMin= -1718.32553922067     IErMin= 9 ErrMin= 3.22D-07
 ErrMax= 3.22D-07  0.00D+00 EMaxC= 1.00D-01 BMatC= 8.88D-12 BMatP= 3.71D-10
 IDIUse=1 WtCom= 1.00D+00 WtEn= 0.00D+00
 Coeff-Com: -0.115D-01 0.735D-01 0.526D-01-0.185D+00 0.284D-01 0.224D+00
 Coeff-Com: -0.159D+00-0.222D+00 0.120D+01
 Coeff:     -0.115D-01 0.735D-01 0.526D-01-0.185D+00 0.284D-01 0.224D+00
 Coeff:     -0.159D+00-0.222D+00 0.120D+01
 Gap=     0.603 Goal=   None    Shift=    0.000
 RMSDP=5.28D-08 MaxDP=3.51D-06 DE=-7.67D-09 OVMax= 1.02D-05

 Cycle  27  Pass 1  IDiag  1:
 RMSU=  1.51D-08    CP:  1.00D+00  3.00D+00  3.00D+00  3.00D+00  2.93D+00
                    CP:  3.00D+00  3.00D+00  2.57D+00  1.07D+00
 E= -1718.32553922074     Delta-E=       -0.000000000065 Rises=F Damp=F
 DIIS: error= 1.66D-07 at cycle  10 NSaved=  10.
 NSaved=10 IEnMin=10 EnMin= -1718.32553922074     IErMin=10 ErrMin= 1.66D-07
 ErrMax= 1.66D-07  0.00D+00 EMaxC= 1.00D-01 BMatC= 2.50D-12 BMatP= 8.88D-12
 IDIUse=1 WtCom= 1.00D+00 WtEn= 0.00D+00
 Coeff-Com: -0.388D-02 0.514D-02 0.124D-01-0.154D-01-0.802D-02 0.104D-01
 Coeff-Com:  0.203D-01-0.452D-01-0.791D-01 0.110D+01
 Coeff:     -0.388D-02 0.514D-02 0.124D-01-0.154D-01-0.802D-02 0.104D-01
 Coeff:      0.203D-01-0.452D-01-0.791D-01 0.110D+01
 Gap=     0.603 Goal=   None    Shift=    0.000
 RMSDP=7.46D-09 MaxDP=4.95D-07 DE=-6.55D-11 OVMax= 1.38D-06

 SCF Done:  E(RHF) =  -1718.32553922     A.U. after   27 cycles
            NFock= 27  Conv=0.75D-08     -V/T= 2.0003
 KE= 1.717786446861D+03 PE=-5.454619577789D+03 EE= 1.322714121440D+03
 Leave Link  502 at Sat May 14 11:15:27 2022, MaxMem=   104857600 cpu:             608.1 elap:              38.1
 (Enter /apps/software/g16/l801.exe)
 Range of M.O.s used for correlation:     1   303
 NBasis=   303 NAE=    42 NBE=    42 NFC=     0 NFV=     0
 NROrb=    303 NOA=    42 NOB=    42 NVA=   261 NVB=   261
 Leave Link  801 at Sat May 14 11:15:27 2022, MaxMem=   104857600 cpu:               0.3 elap:               0.0
 (Enter /apps/software/g16/l914.exe)
 RHF ground state
 Doing stability rather than CIS.
 Two-electron integrals replicated using symmetry.
 MDV=   104857600 DFT=F DoStab=T Mixed=F DoRPA=F DoScal=F NonHer=F
 Making orbital integer symmetry assigments:
 Orbital symmetries:
       Occupied  (A) (A) (A) (A) (A) (A) (A) (A) (A) (A) (A) (A)
                 (A) (A) (A) (A) (A) (A) (A) (A) (A) (A) (A) (A)
                 (A) (A) (A) (A) (A) (A) (A) (A) (A) (A) (A) (A)
                 (A) (A) (A) (A) (A) (A)
       Virtual   (A) (A) (A) (A) (A) (A) (A) (A) (A) (A) (A) (A)
                 (A) (A) (A) (A) (A) (A) (A) (A) (A) (A) (A) (A)
                 (A) (A) (A) (A) (A) (A) (A) (A) (A) (A) (A) (A)
                 (A) (A) (A) (A) (A) (A) (A) (A) (A) (A) (A) (A)
                 (A) (A) (A) (A) (A) (A) (A) (A) (A) (A) (A) (A)
                 (A) (A) (A) (A) (A) (A) (A) (A) (A) (A) (A) (A)
                 (A) (A) (A) (A) (A) (A) (A) (A) (A) (A) (A) (A)
                 (A) (A) (A) (A) (A) (A) (A) (A) (A) (A) (A) (A)
                 (A) (A) (A) (A) (A) (A) (A) (A) (A) (A) (A) (A)
                 (A) (A) (A) (A) (A) (A) (A) (A) (A) (A) (A) (A)
                 (A) (A) (A) (A) (A) (A) (A) (A) (A) (A) (A) (A)
                 (A) (A) (A) (A) (A) (A) (A) (A) (A) (A) (A) (A)
                 (A) (A) (A) (A) (A) (A) (A) (A) (A) (A) (A) (A)
                 (A) (A) (A) (A) (A) (A) (A) (A) (A) (A) (A) (A)
                 (A) (A) (A) (A) (A) (A) (A) (A) (A) (A) (A) (A)
                 (A) (A) (A) (A) (A) (A) (A) (A) (A) (A) (A) (A)
                 (A) (A) (A) (A) (A) (A) (A) (A) (A) (A) (A) (A)
                 (A) (A) (A) (A) (A) (A) (A) (A) (A) (A) (A) (A)
                 (A) (A) (A) (A) (A) (A) (A) (A) (A) (A) (A) (A)
                 (A) (A) (A) (A) (A) (A) (A) (A) (A) (A) (A) (A)
                 (A) (A) (A) (A) (A) (A) (A) (A) (A) (A) (A) (A)
                 (A) (A) (A) (A) (A) (A) (A) (A) (A)
 FoFJK:  IHMeth= 1 ICntrl=       0 DoSepK=F KAlg= 0 I1Cent=           0 FoldK=F
 IRaf=         0 NMat=       1 IRICut=       1 DoRegI=T DoRafI=F ISym2E= 1 IDoP0=0 IntGTp=1.
 FoFCou: FMM=F IPFlag=           0 FMFlag=      100000 FMFlg1=           0
         NFxFlg=           0 DoJE=F BraDBF=F KetDBF=F FulRan=T
         wScrn=  0.000000 ICntrl=         0 IOpCl=  1 I1Cent=           0 NGrid=           0
         NMat0=    1 NMatS0=      1 NMatT0=    0 NMatD0=    1 NMtDS0=    0 NMtDT0=    0
 Petite list used in FoFCou.
    24 initial guesses have been made.
 Convergence on wavefunction:    0.001000000000000
 Davidson Disk Diagonalization:  ConvIn= 1.00D-03 SkipCon=T Conv= 1.00D-03.
 Max sub-space:  2000 roots to seek:    24 dimension of matrix:        21924
 Iteration     1 Dimension    24 NMult     0 NNew     24
 CISAX will form     6 AO SS matrices at one time.
 NMat=     6 NSing=     6 JSym2X= 0.
 NMat=     6 NSing=     6 JSym2X= 0.
 NMat=     6 NSing=     0 JSym2X= 0.
 NMat=     6 NSing=     0 JSym2X= 0.
 New state      1 was old state      4
 New state      2 was old state     10
 New state      3 was old state     12
 New state      4 was old state      8
 New state      5 was old state      2
 New state      7 was old state      3
 New state      8 was old state      9
 New state      9 was old state     11
 New state     10 was old state      7
 New state     11 was old state      1
 New state     12 was old state      5
 Excitation Energies [eV] at current iteration:
 Root      1 :     2.861686028048655
 Root      2 :     2.926664367976442
 Root      3 :     2.927691699611231
 Root      4 :     3.393038132071103
 Root      5 :     3.425572959720919
 Root      6 :     3.426641464926265
 Root      7 :     4.472407987736952
 Root      8 :     4.504154374674544
 Root      9 :     4.505016182515953
 Root     10 :     6.544938115209920
 Root     11 :     6.630004742466507
 Root     12 :     6.630958601441098
 Root     13 :    11.254256285836927
 Root     14 :    11.254483223126881
 Root     15 :    11.370496943835652
 Root     16 :    11.370721637386934
 Root     17 :    11.391681878172587
 Root     18 :    11.511906827095691
 Root     19 :    16.383189222056235
 Root     20 :    16.520185357975361
 Root     21 :    16.737041048839863
 Root     22 :    16.769283476513976
 Root     23 :    17.004492640232321
 Root     24 :    17.185984576869117
 Iteration     2 Dimension    48 NMult    24 NNew     24
 CISAX will form     6 AO SS matrices at one time.
 NMat=     6 NSing=     6 JSym2X= 0.
 NMat=     6 NSing=     6 JSym2X= 0.
 NMat=     6 NSing=     0 JSym2X= 0.
 NMat=     6 NSing=     0 JSym2X= 0.
 Root      1 not converged, maximum delta is    0.178536192516506
 New state      2 was old state      3
 Root      2 not converged, maximum delta is    0.234383969003357
 New state      3 was old state      2
 Root      3 not converged, maximum delta is    0.234701132602569
 Root      4 not converged, maximum delta is    0.184259052859447
 Root      5 not converged, maximum delta is    0.322205732602122
 Root      6 not converged, maximum delta is    0.321923699457188
 New state      7 was old state      9
 Root      7 not converged, maximum delta is    0.242987311243596
 Root      8 not converged, maximum delta is    0.243081434534579
 New state      9 was old state      7
 Root      9 not converged, maximum delta is    0.172100966006458
 Root     10 not converged, maximum delta is    0.171289040194045
 Root     11 not converged, maximum delta is    0.181591914858264
 Root     12 not converged, maximum delta is    0.181465905152589
 Excitation Energies [eV] at current iteration:
 Root      1 :    -1.033356836124937   Change is   -3.895042864173591
 Root      2 :    -0.983792744654487   Change is   -3.911484444265718
 Root      3 :    -0.983717397265416   Change is   -3.910381765241858
 Root      4 :    -0.358106156917311   Change is   -3.751144288988414
 Root      5 :    -0.272417750151205   Change is   -3.697990709872123
 Root      6 :    -0.272053524947337   Change is   -3.698694989873602
 Root      7 :     1.324668688405741   Change is   -3.180347494110212
 Root      8 :     1.324745813693129   Change is   -3.179408560981415
 Root      9 :     1.350488438449154   Change is   -3.121919549287798
 Root     10 :     3.942210485850874   Change is   -2.602727629359045
 Root     11 :     4.065058317694068   Change is   -2.564946424772439
 Root     12 :     4.065552469792504   Change is   -2.565406131648594
 Root     13 :    10.361867412785005   Change is   -0.892388873051923
 Root     14 :    10.362173198597976   Change is   -0.892310024528906
 Root     15 :    10.508578345833087   Change is   -0.883103532339501
 Root     16 :    11.066331551573018   Change is   -0.304165392262635
 Root     17 :    11.066617016886056   Change is   -0.304104620500879
 Root     18 :    11.236576602388093   Change is   -0.275330224707598
 Root     19 :    12.227983547243813   Change is   -4.155205674812422
 Root     20 :    13.533591807954657   Change is   -2.986593550020705
 Root     21 :    14.008419079129681
 Root     22 :    15.567637190888872   Change is   -1.169403857950989
 Root     23 :    15.763714853904341   Change is   -1.005568622609634
 Root     24 :    15.873659765679818
 Iteration     3 Dimension    54 NMult    48 NNew      6
 CISAX will form     6 AO SS matrices at one time.
 NMat=     6 NSing=     3 JSym2X= 0.
 Root      1 not converged, maximum delta is    0.008484427534461
 Root      2 not converged, maximum delta is    0.012186959801895
 Root      3 not converged, maximum delta is    0.012190807479887
 New state      4 was old state      9
 Root      4 not converged, maximum delta is    0.010258267501852
 New state      5 was old state      8
 Root      5 not converged, maximum delta is    0.255077800886200
 New state      6 was old state      7
 Root      6 not converged, maximum delta is    0.254772237518768
 Excitation Energies [eV] at current iteration:
 Root      1 :    -1.078764743913900   Change is   -0.045407907788963
 Root      2 :    -1.024208407682737   Change is   -0.040415663028250
 Root      3 :    -1.024121789109246   Change is   -0.040404391843830
 Root      4 :     1.235825420090932   Change is   -0.114663018358222
 Root      5 :     1.286613856236035   Change is   -0.038131957457094
 Root      6 :     1.286618971926604   Change is   -0.038049716479137
 Iteration     4 Dimension    60 NMult    54 NNew      6
 CISAX will form     6 AO SS matrices at one time.
 NMat=     6 NSing=     3 JSym2X= 0.
 Root      1 not converged, maximum delta is    0.002709863480253
 Root      2 not converged, maximum delta is    0.001851045225585
 Root      3 not converged, maximum delta is    0.001850355879856
 Root      4 not converged, maximum delta is    0.002197562876762
 New state      5 was old state      6
 Root      5 not converged, maximum delta is    0.264115589555984
 New state      6 was old state      5
 Root      6 not converged, maximum delta is    0.264428755505462
 Excitation Energies [eV] at current iteration:
 Root      1 :    -1.080663651587234   Change is   -0.001898907673334
 Root      2 :    -1.025709367622343   Change is   -0.001500959939606
 Root      3 :    -1.025622239212959   Change is   -0.001500450103713
 Root      4 :     1.225856632790039   Change is   -0.009968787300894
 Root      5 :     1.281727248809956   Change is   -0.004891723116648
 Root      6 :     1.281808340605271   Change is   -0.004805515630764
 Iteration     5 Dimension    66 NMult    60 NNew      6
 CISAX will form     6 AO SS matrices at one time.
 NMat=     6 NSing=     3 JSym2X= 0.
 Root      1 has converged.
 Root      2 has converged.
 Root      3 has converged.
 Root      4 has converged.
 Root      5 not converged, maximum delta is    0.001448923895273
 Root      6 not converged, maximum delta is    0.001450243921852
 Excitation Energies [eV] at current iteration:
 Root      1 :    -1.080777464844576   Change is   -0.000113813257342
 Root      2 :    -1.025800566949393   Change is   -0.000091199327049
 Root      3 :    -1.025713404165971   Change is   -0.000091164953012
 Root      4 :     1.225290144075943   Change is   -0.000566488714096
 Root      5 :     1.281265205008514   Change is   -0.000462043801442
 Root      6 :     1.281360491672192   Change is   -0.000447848933079
 Iteration     6 Dimension    68 NMult    66 NNew      2
 CISAX will form     2 AO SS matrices at one time.
 NMat=     2 NSing=     2 JSym2X= 0.
 Root      1 has converged.
 Root      2 has converged.
 Root      3 has converged.
 Root      4 has converged.
 Root      5 has converged.
 Root      6 has converged.
 Excitation Energies [eV] at current iteration:
 Root      1 :    -1.080777464844592   Change is   -0.000000000000015
 Root      2 :    -1.025800566949420   Change is   -0.000000000000027
 Root      3 :    -1.025713404165965   Change is    0.000000000000006
 Root      4 :     1.225290143922146   Change is   -0.000000000153797
 Root      5 :     1.281245129727233   Change is   -0.000020075281281
 Root      6 :     1.281340827638977   Change is   -0.000019664033215
 Convergence achieved on expansion vectors.
 ***********************************************************************
 Stability analysis using <AA,BB:AA,BB> singles matrix:
 ***********************************************************************
 1PDM for each excited state written to RWF  633
 Ground to excited state transition densities written to RWF  633

 Eigenvectors of the stability matrix:
 
 Eigenvector   1:      Triplet-A    Eigenvalue=-0.0397178  <S**2>=2.000
      34 -> 56        -0.18319
      35 -> 55        -0.18371
      41 -> 55         0.37475
      41 -> 56         0.20991
      42 -> 55         0.21096
      42 -> 56        -0.37381
 
 Eigenvector   2:      Triplet-A    Eigenvalue=-0.0376975  <S**2>=2.000
      34 -> 56         0.10861
      35 -> 55        -0.10788
      36 -> 55         0.17292
      40 -> 48         0.10418
      40 -> 55         0.38808
      41 -> 55         0.16123
      41 -> 56        -0.28005
      42 -> 55         0.27893
      42 -> 56         0.16259
 
 Eigenvector   3:      Triplet-A    Eigenvalue=-0.0376943  <S**2>=2.000
      34 -> 55         0.10829
      35 -> 56         0.10820
      36 -> 56         0.17286
      40 -> 47         0.10421
      40 -> 56         0.38775
      41 -> 55        -0.27954
      41 -> 56        -0.16134
      42 -> 55         0.16178
      42 -> 56        -0.28009
 
 Eigenvector   4:      Singlet-A    Eigenvalue= 0.0450286  <S**2>=0.000
      34 -> 56        -0.18118
      35 -> 55        -0.18159
      41 -> 55         0.37630
      41 -> 56         0.21087
      42 -> 55         0.21174
      42 -> 56        -0.37555
 
 Eigenvector   5:      Singlet-A    Eigenvalue= 0.0470849  <S**2>=0.000
      36 -> 55         0.18544
      40 -> 48         0.11319
      40 -> 55         0.42200
      41 -> 55         0.13476
      41 -> 56        -0.27557
      42 -> 55         0.27444
      42 -> 56         0.13587
 
 Eigenvector   6:      Singlet-A    Eigenvalue= 0.0470884  <S**2>=0.000
      36 -> 56         0.18542
      40 -> 47         0.11322
      40 -> 56         0.42171
      41 -> 55        -0.27499
      41 -> 56        -0.13474
      42 -> 55         0.13518
      42 -> 56        -0.27567
 The wavefunction has an RHF -> UHF instability.
 Leave Link  914 at Sat May 14 11:16:13 2022, MaxMem=   104857600 cpu:             733.1 elap:              46.0
 (Enter /apps/software/g16/l601.exe)
 Copying SCF densities to generalized density rwf, IOpCl= 0 IROHF=0.

 **********************************************************************

            Population analysis using the SCF density.

 **********************************************************************

 Orbital symmetries:
       Occupied  (A) (A) (A) (A) (A) (A) (A) (A) (A) (A) (A) (A)
                 (A) (A) (A) (A) (A) (A) (A) (A) (A) (A) (A) (A)
                 (A) (A) (A) (A) (A) (A) (A) (A) (A) (A) (A) (A)
                 (A) (A) (A) (A) (A) (A)
       Virtual   (A) (A) (A) (A) (A) (A) (A) (A) (A) (A) (A) (A)
                 (A) (A) (A) (A) (A) (A) (A) (A) (A) (A) (A) (A)
                 (A) (A) (A) (A) (A) (A) (A) (A) (A) (A) (A) (A)
                 (A) (A) (A) (A) (A) (A) (A) (A) (A) (A) (A) (A)
                 (A) (A) (A) (A) (A) (A) (A) (A) (A) (A) (A) (A)
                 (A) (A) (A) (A) (A) (A) (A) (A) (A) (A) (A) (A)
                 (A) (A) (A) (A) (A) (A) (A) (A) (A) (A) (A) (A)
                 (A) (A) (A) (A) (A) (A) (A) (A) (A) (A) (A) (A)
                 (A) (A) (A) (A) (A) (A) (A) (A) (A) (A) (A) (A)
                 (A) (A) (A) (A) (A) (A) (A) (A) (A) (A) (A) (A)
                 (A) (A) (A) (A) (A) (A) (A) (A) (A) (A) (A) (A)
                 (A) (A) (A) (A) (A) (A) (A) (A) (A) (A) (A) (A)
                 (A) (A) (A) (A) (A) (A) (A) (A) (A) (A) (A) (A)
                 (A) (A) (A) (A) (A) (A) (A) (A) (A) (A) (A) (A)
                 (A) (A) (A) (A) (A) (A) (A) (A) (A) (A) (A) (A)
                 (A) (A) (A) (A) (A) (A) (A) (A) (A) (A) (A) (A)
                 (A) (A) (A) (A) (A) (A) (A) (A) (A) (A) (A) (A)
                 (A) (A) (A) (A) (A) (A) (A) (A) (A) (A) (A) (A)
                 (A) (A) (A) (A) (A) (A) (A) (A) (A) (A) (A) (A)
                 (A) (A) (A) (A) (A) (A) (A) (A) (A) (A) (A) (A)
                 (A) (A) (A) (A) (A) (A) (A) (A) (A) (A) (A) (A)
                 (A) (A) (A) (A) (A) (A) (A) (A) (A)
 The electronic state is 1-A.
 Alpha  occ. eigenvalues -- -261.62426 -32.18628 -27.66703 -27.66619 -27.66619
 Alpha  occ. eigenvalues --  -20.91185 -20.91185 -20.91184 -20.91184 -20.91184
 Alpha  occ. eigenvalues --  -20.91182  -4.41230  -2.99458  -2.99292  -2.99292
 Alpha  occ. eigenvalues --   -1.70999  -1.69892  -1.69445  -1.69444  -1.69238
 Alpha  occ. eigenvalues --   -1.69237  -1.07477  -1.06792  -1.06399  -1.06397
 Alpha  occ. eigenvalues --   -1.06027  -1.06024  -1.01122  -0.96546  -0.95712
 Alpha  occ. eigenvalues --   -0.95709  -0.95217  -0.95215  -0.88734  -0.88730
 Alpha  occ. eigenvalues --   -0.87931  -0.87174  -0.87173  -0.85338  -0.80625
 Alpha  occ. eigenvalues --   -0.80136  -0.80135
 Alpha virt. eigenvalues --   -0.19812  -0.14797  -0.14795  -0.13531  -0.11386
 Alpha virt. eigenvalues --   -0.11385  -0.07059  -0.07059  -0.06881  -0.06685
 Alpha virt. eigenvalues --   -0.05323  -0.05323   0.02215   0.02217   0.04443
 Alpha virt. eigenvalues --    0.09647   0.09704   0.09704   0.12972   0.12977
 Alpha virt. eigenvalues --    0.15956   0.15962   0.16764   0.18472   0.20296
 Alpha virt. eigenvalues --    0.23465   0.23467   0.29377   0.30898   0.30900
 Alpha virt. eigenvalues --    0.32589   0.32594   0.32791   0.35696   0.35698
 Alpha virt. eigenvalues --    0.36802   0.38127   0.39944   0.39945   0.42676
 Alpha virt. eigenvalues --    0.44021   0.44083   0.44086   0.49388   0.49391
 Alpha virt. eigenvalues --    0.50047   0.50051   0.52209   0.52971   0.52973
 Alpha virt. eigenvalues --    0.54161   0.56596   0.59974   0.59981   0.63769
 Alpha virt. eigenvalues --    0.68826   0.72500   0.72503   0.85867   0.85869
 Alpha virt. eigenvalues --    0.85967   1.01288   1.01295   1.08953   1.08958
 Alpha virt. eigenvalues --    1.11378   1.14749   1.14753   1.15535   1.22368
 Alpha virt. eigenvalues --    1.22374   1.24492   1.24628   1.24632   1.33349
 Alpha virt. eigenvalues --    1.42926   1.42933   1.43196   1.45583   1.45596
 Alpha virt. eigenvalues --    1.54472   1.54479   1.55141   1.56734   1.56738
 Alpha virt. eigenvalues --    1.57442   1.62085   1.62087   1.62617   1.65548
 Alpha virt. eigenvalues --    1.66535   1.68357   1.68361   1.73194   1.73199
 Alpha virt. eigenvalues --    1.75564   1.75570   1.77286   1.80420   1.87298
 Alpha virt. eigenvalues --    1.87302   1.92017   1.94355   1.94360   2.04041
 Alpha virt. eigenvalues --    2.04164   2.04173   2.06937   2.08575   2.08583
 Alpha virt. eigenvalues --    2.12261   2.12522   2.12527   2.12609   2.14285
 Alpha virt. eigenvalues --    2.17573   2.17579   2.21976   2.21990   2.23625
 Alpha virt. eigenvalues --    2.23642   2.24844   2.32204   2.33862   2.33873
 Alpha virt. eigenvalues --    2.41438   2.41443   2.47719   2.50520   2.53951
 Alpha virt. eigenvalues --    2.53962   2.55017   2.55019   2.56571   2.63346
 Alpha virt. eigenvalues --    2.65293   2.65299   2.67741   2.68221   2.68225
 Alpha virt. eigenvalues --    2.71057   2.72617   2.72621   2.73061   2.85023
 Alpha virt. eigenvalues --    2.85037   2.85432   2.85446   2.88808   2.90769
 Alpha virt. eigenvalues --    2.90779   2.91114   3.01315   3.01322   3.04751
 Alpha virt. eigenvalues --    3.14603   3.50279   3.50283   3.63896   3.66760
 Alpha virt. eigenvalues --    3.69412   3.69422   3.80093   3.80100   3.83505
 Alpha virt. eigenvalues --    3.86974   3.86982   3.96980   3.98681   3.98917
 Alpha virt. eigenvalues --    3.98924   4.02698   4.02701   4.07038   4.18877
 Alpha virt. eigenvalues --    4.22983   4.24652   4.24654   4.38539   4.38875
 Alpha virt. eigenvalues --    4.38905   4.39848   4.39854   5.22079   5.22953
 Alpha virt. eigenvalues --    5.22955   5.23619   5.25434   5.25438   5.31494
 Alpha virt. eigenvalues --    5.31501   5.32361   5.35412   5.38471   5.38481
 Alpha virt. eigenvalues --    5.48950   5.48952   5.49441   5.49906   5.50784
 Alpha virt. eigenvalues --    5.50789   5.52210   5.53469   5.53472   5.54157
 Alpha virt. eigenvalues --    5.56868   5.56873   5.57971   5.58234   5.58248
 Alpha virt. eigenvalues --    5.58608   5.59241   5.59246   6.10919   6.10924
 Alpha virt. eigenvalues --    6.11635   6.11640   6.12714   6.16313   6.37304
 Alpha virt. eigenvalues --    6.37314   6.37829   6.39791   6.41452   6.41455
 Alpha virt. eigenvalues --    6.52094   6.52100   6.57446   6.58400   6.59857
 Alpha virt. eigenvalues --    6.59866   6.60717   6.63075   6.67093   6.67101
 Alpha virt. eigenvalues --    6.76035   6.76038   6.77655   6.77659   6.82046
 Alpha virt. eigenvalues --    6.89451   6.99228   6.99237   7.06724   7.06743
 Alpha virt. eigenvalues --    7.07578   7.07719   7.11709   7.11718   7.17501
 Alpha virt. eigenvalues --    7.17512   7.19885   7.19900   7.21887   7.35473
 Alpha virt. eigenvalues --   44.51988  44.65009  44.65297  44.65302  45.08196
 Alpha virt. eigenvalues --   45.08211
          Condensed to atoms (all electrons):
               1          2          3          4          5          6
     1  Fe  24.460473   0.089168  -0.005956   0.089159  -0.006250   0.089064
     2  O    0.089168   8.045273   0.314914  -0.014779   0.000207  -0.024267
     3  H   -0.005956   0.314914   0.273572  -0.000024  -0.000018   0.002641
     4  O    0.089159  -0.014779  -0.000024   8.045222   0.315862  -0.001990
     5  H   -0.006250   0.000207  -0.000018   0.315862   0.280294  -0.000012
     6  O    0.089064  -0.024267   0.002641  -0.001990  -0.000012   8.045543
     7  H   -0.006243   0.000446  -0.000074  -0.000012   0.000002   0.315858
     8  O    0.089155  -0.001988  -0.000013  -0.024189   0.000445  -0.014731
     9  H   -0.005956  -0.000013   0.000005   0.002637  -0.000074  -0.000024
    10  O    0.089167  -0.024171   0.000302  -0.014751   0.001044  -0.024237
    11  H   -0.005960   0.002638   0.000004   0.000163   0.000122   0.000302
    12  O    0.089104  -0.014784   0.000163  -0.024205   0.000281  -0.014762
    13  H   -0.005948  -0.000024  -0.000012   0.000302  -0.000009   0.000162
    14  H   -0.006247   0.000280  -0.000009   0.000207   0.000064   0.000445
    15  H   -0.005960   0.000163  -0.000012   0.314910  -0.010823  -0.000013
    16  H   -0.006245   0.001046   0.000122   0.000445   0.000009   0.000207
    17  H   -0.006249   0.315860  -0.010823   0.001048   0.000064   0.000282
    18  H   -0.005956   0.000302   0.000004  -0.000013  -0.000000   0.314910
    19  H   -0.006244  -0.000012  -0.000000   0.000281   0.000009   0.001045
               7          8          9         10         11         12
     1  Fe  -0.006243   0.089155  -0.005956   0.089167  -0.005960   0.089104
     2  O    0.000446  -0.001988  -0.000013  -0.024171   0.002638  -0.014784
     3  H   -0.000074  -0.000013   0.000005   0.000302   0.000004   0.000163
     4  O   -0.000012  -0.024189   0.002637  -0.014751   0.000163  -0.024205
     5  H    0.000002   0.000445  -0.000074   0.001044   0.000122   0.000281
     6  O    0.315858  -0.014731  -0.000024  -0.024237   0.000302  -0.014762
     7  H    0.280282   0.000206  -0.000018   0.000282  -0.000009   0.001046
     8  O    0.000206   8.045233   0.314908  -0.014764  -0.000024  -0.024201
     9  H   -0.000018   0.314908   0.273581   0.000163  -0.000012   0.000301
    10  O    0.000282  -0.014764   0.000163   8.045213   0.314905  -0.001988
    11  H   -0.000009  -0.000024  -0.000012   0.314905   0.273611  -0.000013
    12  O    0.001046  -0.024201   0.000301  -0.001988  -0.000013   8.045413
    13  H    0.000121   0.002639   0.000004  -0.000013   0.000005   0.314902
    14  H    0.000009   0.001045   0.000122   0.315860  -0.010823  -0.000012
    15  H   -0.000000   0.000302   0.000004  -0.000024  -0.000012   0.002639
    16  H    0.000064   0.000281  -0.000009  -0.000012  -0.000000   0.315859
    17  H    0.000009  -0.000012  -0.000000   0.000445  -0.000074   0.000208
    18  H   -0.010822   0.000162  -0.000012   0.002638   0.000003  -0.000024
    19  H    0.000064   0.315864  -0.010823   0.000207  -0.000018   0.000445
              13         14         15         16         17         18
     1  Fe  -0.005948  -0.006247  -0.005960  -0.006245  -0.006249  -0.005956
     2  O   -0.000024   0.000280   0.000163   0.001046   0.315860   0.000302
     3  H   -0.000012  -0.000009  -0.000012   0.000122  -0.010823   0.000004
     4  O    0.000302   0.000207   0.314910   0.000445   0.001048  -0.000013
     5  H   -0.000009   0.000064  -0.010823   0.000009   0.000064  -0.000000
     6  O    0.000162   0.000445  -0.000013   0.000207   0.000282   0.314910
     7  H    0.000121   0.000009  -0.000000   0.000064   0.000009  -0.010822
     8  O    0.002639   0.001045   0.000302   0.000281  -0.000012   0.000162
     9  H    0.000004   0.000122   0.000004  -0.000009  -0.000000  -0.000012
    10  O   -0.000013   0.315860  -0.000024  -0.000012   0.000445   0.002638
    11  H    0.000005  -0.010823  -0.000012  -0.000000  -0.000074   0.000003
    12  O    0.314902  -0.000012   0.002639   0.315859   0.000208  -0.000024
    13  H    0.273566  -0.000000   0.000004  -0.010824  -0.000018  -0.000012
    14  H   -0.000000   0.280303  -0.000018   0.000002   0.000009  -0.000074
    15  H    0.000004  -0.000018   0.273588  -0.000074   0.000122   0.000005
    16  H   -0.010824   0.000002  -0.000074   0.280299   0.000064  -0.000018
    17  H   -0.000018   0.000009   0.000122   0.000064   0.280312  -0.000009
    18  H   -0.000012  -0.000074   0.000005  -0.000018  -0.000009   0.273544
    19  H   -0.000075   0.000064  -0.000009   0.000009   0.000002   0.000121
              19
     1  Fe  -0.006244
     2  O   -0.000012
     3  H   -0.000000
     4  O    0.000281
     5  H    0.000009
     6  O    0.001045
     7  H    0.000064
     8  O    0.315864
     9  H   -0.010823
    10  O    0.000207
    11  H   -0.000018
    12  O    0.000445
    13  H   -0.000075
    14  H    0.000064
    15  H   -0.000009
    16  H    0.000009
    17  H    0.000002
    18  H    0.000121
    19  H    0.280284
 Mulliken charges:
               1
     1  Fe   1.077924
     2  O   -0.690259
     3  H    0.425217
     4  O   -0.690273
     5  H    0.418784
     6  O   -0.690422
     7  H    0.418790
     8  O   -0.690319
     9  H    0.425215
    10  O   -0.690265
    11  H    0.425193
    12  O   -0.690372
    13  H    0.425230
    14  H    0.418773
    15  H    0.425210
    16  H    0.418775
    17  H    0.418763
    18  H    0.425251
    19  H    0.418786
 Sum of Mulliken charges =   2.00000
 Mulliken charges with hydrogens summed into heavy atoms:
               1
     1  Fe   1.077924
     2  O    0.153720
     4  O    0.153722
     6  O    0.153619
     8  O    0.153682
    10  O    0.153701
    12  O    0.153632
 Electronic spatial extent (au):  <R**2>=           1030.7019
 Charge=              2.0000 electrons
 Dipole moment (field-independent basis, Debye):
    X=             -0.0011    Y=             -0.0013    Z=             -0.0019  Tot=              0.0026
 Quadrupole moment (field-independent basis, Debye-Ang):
   XX=            -22.9309   YY=            -15.2022   ZZ=            -15.2107
   XY=             -0.0016   XZ=              0.0124   YZ=              0.0059
 Traceless Quadrupole moment (field-independent basis, Debye-Ang):
   XX=             -5.1496   YY=              2.5790   ZZ=              2.5706
   XY=             -0.0016   XZ=              0.0124   YZ=              0.0059
 Octapole moment (field-independent basis, Debye-Ang**2):
  XXX=             -0.0102  YYY=              0.0118  ZZZ=              0.0059  XYY=              0.0027
  XXY=             -0.0085  XXZ=             -0.0331  XZZ=             -0.0080  YZZ=             -0.0124
  YYZ=             -0.0096  XYZ=             -0.0196
 Hexadecapole moment (field-independent basis, Debye-Ang**3):
 XXXX=           -286.5806 YYYY=           -158.3681 ZZZZ=           -158.4170 XXXY=             -0.0135
 XXXZ=              0.0966 YYYX=              9.3257 YYYZ=             -0.0007 ZZZX=             38.9855
 ZZZY=              0.0481 XXYY=            -58.7935 XXZZ=            -58.6769 YYZZ=            -52.7558
 XXYZ=              0.0210 YYXZ=            -38.9525 ZZXY=             -9.3347
 N-N= 6.957934702665D+02 E-N=-5.454619571316D+03  KE= 1.717786446861D+03
 No NMR shielding tensors so no spin-rotation constants.
 Leave Link  601 at Sat May 14 11:16:13 2022, MaxMem=   104857600 cpu:               2.1 elap:               0.2
 (Enter /apps/software/g16/l9999.exe)
 1\1\GINC-CNODE03\Stability\RHF\def2TZVP\Fe1H12O6(2+)\LCZ\14-May-2022\0
 \\#p RHF/Def2TZVP stable guess=mix\\[Fe(H2O)6]2+\\2,1\Fe,0,-0.64257176
 05,0.5180392056,0.1151525948\O,0,0.111746875,2.1502736296,-0.780033076
 6\H,0,0.7076677542,2.7159064382,-0.2534686021\O,0,-1.3119384494,-0.302
 5443721,-1.5915397432\H,0,-1.9364836681,0.1309313599,-2.2009076077\O,0
 ,0.027209188,1.3394057211,1.8212267689\H,0,0.6525876562,0.9068687008,2
 .4304031155\O,0,-1.3964805353,-1.1144480791,1.0102391629\H,0,-1.993313
 9268,-1.6794048423,0.4839749089\O,0,-2.2868202362,1.6334082837,0.41005
 37249\H,0,-2.353770211,2.4729106521,-0.0830180882\O,0,1.0019437293,-0.
 5971233562,-0.1795016516\H,0,1.0680776668,-1.4375884294,0.3120254585\H
 ,0,-3.1892209847,1.2728024717,0.4803641716\H,0,-0.6652199156,-0.783520
 063,-2.1417946811\H,0,1.9045464642,-0.2367828976,-0.2484504359\H,0,0.4
 37766506,2.171136038,-1.697943468\H,0,-0.6187560453,1.8212395471,2.371
 5986615\H,0,-1.7212601067,-1.1359500081,1.9285687869\\Version=ES64L-G1
 6RevA.03\State=1-A\HF=-1718.3255392\RMSD=7.460e-09\Dipole=0.0007259,0.
 0003273,0.0006149\Quadrupole=1.8994173,-3.310976,1.4115587,0.3244131,0
 .1013362,-1.611521\PG=C01 [X(Fe1H12O6)]\\@


 LENDING MONEY TO FRIENDS CAUSES THEM TO LOSE THEIR MEMORIES.

    --  PETER'S THEORY OF RECIPROCAL INHIBITION OF FISCAL RECALL
 Job cpu time:       0 days  0 hours 22 minutes 36.8 seconds.
 Elapsed time:       0 days  0 hours  1 minutes 25.3 seconds.
 File lengths (MBytes):  RWF=    527 Int=      0 D2E=      0 Chk=     26 Scr=      1
 Normal termination of Gaussian 16 at Sat May 14 11:16:13 2022.

Sender: Unischeduler System <lcz@mgt01>
Subject: Job 131973: <#!/bin/bash
#BSUB -J intel
#BSUB -o stability-RHF.out
#BSUB -n 16
#BSUB -q cqueue
#BSUB -R span[hosts=1]
export g16root=/apps/software
source /apps/software/g16/bsd/g16.profile
export GAUSS_SCRDIR=/scratch
/apps/software/g16/g16 < stability-RHF.inp > stability-RHF.out> Done

Job <#!/bin/bash
#BSUB -J intel
#BSUB -o stability-RHF.out
#BSUB -n 16
#BSUB -q cqueue
#BSUB -R span[hosts=1]
export g16root=/apps/software
source /apps/software/g16/bsd/g16.profile
export GAUSS_SCRDIR=/scratch
/apps/software/g16/g16 < stability-RHF.inp > stability-RHF.out> was submitted from host <mgt01> by user <lcz>.
Job was executed on host(s) <16*cnode03>, in queue <cqueue>, as user <lcz>.
</apps/users/lcz> was used as the home directory.
</apps/users/lcz/exe5/task2/stabilityTest/Gaussian/def2TZVP> was used as the working directory.
Started at 2022-05-14 11:14:47
Results reported at 2022-05-14 11:16:13

Your job looked like:

------------------------------------------------------------
# User input
#!/bin/bash
#BSUB -J intel
#BSUB -o stability-RHF.out
#BSUB -n 16
#BSUB -q cqueue
#BSUB -R span[hosts=1]
export g16root=/apps/software
source /apps/software/g16/bsd/g16.profile
export GAUSS_SCRDIR=/scratch
/apps/software/g16/g16 < stability-RHF.inp > stability-RHF.out
------------------------------------------------------------

Successfully completed.

Resource usage summary:

    CPU time   :          1262.7 sec.
    Max Memory :               713 MB
    Max Processes  :               5


The output (if any) follows:

