 Entering Gaussian System, Link 0=/apps/software/g16/g16
 Initial command:
 /apps/software/g16/l1.exe "/scratch/Gau-189849.inp" -scrdir="/scratch/"
 Entering Link 1 = /apps/software/g16/l1.exe PID=    189850.
  
 Copyright (c) 1988,1990,1992,1993,1995,1998,2003,2009,2016,
            Gaussian, Inc.  All Rights Reserved.
  
 This is part of the Gaussian(R) 16 program.  It is based on
 the Gaussian(R) 09 system (copyright 2009, Gaussian, Inc.),
 the Gaussian(R) 03 system (copyright 2003, Gaussian, Inc.),
 the Gaussian(R) 98 system (copyright 1998, Gaussian, Inc.),
 the Gaussian(R) 94 system (copyright 1995, Gaussian, Inc.),
 the Gaussian 92(TM) system (copyright 1992, Gaussian, Inc.),
 the Gaussian 90(TM) system (copyright 1990, Gaussian, Inc.),
 the Gaussian 88(TM) system (copyright 1988, Gaussian, Inc.),
 the Gaussian 86(TM) system (copyright 1986, Carnegie Mellon
 University), and the Gaussian 82(TM) system (copyright 1983,
 Carnegie Mellon University). Gaussian is a federally registered
 trademark of Gaussian, Inc.
  
 This software contains proprietary and confidential information,
 including trade secrets, belonging to Gaussian, Inc.
  
 This software is provided under written license and may be
 used, copied, transmitted, or stored only in accord with that
 written license.
  
 The following legend is applicable only to US Government
 contracts under FAR:
  
                    RESTRICTED RIGHTS LEGEND
  
 Use, reproduction and disclosure by the US Government is
 subject to restrictions as set forth in subparagraphs (a)
 and (c) of the Commercial Computer Software - Restricted
 Rights clause in FAR 52.227-19.
  
 Gaussian, Inc.
 340 Quinnipiac St., Bldg. 40, Wallingford CT 06492
  
  
 ---------------------------------------------------------------
 Warning -- This program may not be used in any manner that
 competes with the business of Gaussian, Inc. or will provide
 assistance to any competitor of Gaussian, Inc.  The licensee
 of this program is prohibited from giving any competitor of
 Gaussian, Inc. access to this program.  By using this program,
 the user acknowledges that Gaussian, Inc. is engaged in the
 business of creating and licensing software in the field of
 computational chemistry and represents and warrants to the
 licensee that it is not a competitor of Gaussian, Inc. and that
 it will not use this program in any manner prohibited above.
 ---------------------------------------------------------------
  

 Cite this work as:
 Gaussian 16, Revision A.03,
 M. J. Frisch, G. W. Trucks, H. B. Schlegel, G. E. Scuseria, 
 M. A. Robb, J. R. Cheeseman, G. Scalmani, V. Barone, 
 G. A. Petersson, H. Nakatsuji, X. Li, M. Caricato, A. V. Marenich, 
 J. Bloino, B. G. Janesko, R. Gomperts, B. Mennucci, H. P. Hratchian, 
 J. V. Ortiz, A. F. Izmaylov, J. L. Sonnenberg, D. Williams-Young, 
 F. Ding, F. Lipparini, F. Egidi, J. Goings, B. Peng, A. Petrone, 
 T. Henderson, D. Ranasinghe, V. G. Zakrzewski, J. Gao, N. Rega, 
 G. Zheng, W. Liang, M. Hada, M. Ehara, K. Toyota, R. Fukuda, 
 J. Hasegawa, M. Ishida, T. Nakajima, Y. Honda, O. Kitao, H. Nakai, 
 T. Vreven, K. Throssell, J. A. Montgomery, Jr., J. E. Peralta, 
 F. Ogliaro, M. J. Bearpark, J. J. Heyd, E. N. Brothers, K. N. Kudin, 
 V. N. Staroverov, T. A. Keith, R. Kobayashi, J. Normand, 
 K. Raghavachari, A. P. Rendell, J. C. Burant, S. S. Iyengar, 
 J. Tomasi, M. Cossi, J. M. Millam, M. Klene, C. Adamo, R. Cammi, 
 J. W. Ochterski, R. L. Martin, K. Morokuma, O. Farkas, 
 J. B. Foresman, and D. J. Fox, Gaussian, Inc., Wallingford CT, 2016.
 
 ******************************************
 Gaussian 16:  ES64L-G16RevA.03 25-Dec-2016
                14-May-2022 
 ******************************************
 %nprocshared=16
 Will use up to   16 processors via shared memory.
 ----------------------
 # B3LYP/cc-pVTZ stable
 ----------------------
 1/38=1,172=1/1;
 2/12=2,17=6,18=5,40=1/2;
 3/5=16,6=1,11=2,25=1,30=1,74=-5/1,2,3;
 4//1;
 5/5=2,38=5/2;
 8/6=1,10=90,11=11/1;
 9/8=-1,42=1/14;
 6/7=2,8=2,9=2,10=2,28=1/1;
 99/5=1,9=1/99;
 ------------
 [Fe(H2O)6]2+
 ------------
 Symbolic Z-matrix:
 Charge =  2 Multiplicity = 1
 Fe                    6.20397   1.03715   0.17097 
 O                     8.02344   0.99563   0.15636 
 O                     6.24694  -0.78162   0.11972 
 O                     6.22608   1.15774  -1.6449 
 O                     4.3844    1.01817   0.2057 
 O                     6.16558   2.85627   0.21242 
 O                     6.16851   1.06001   1.99048 
 H                     4.06546   1.78649   0.68482 
 H                     4.08102   0.21944   0.64342 
 H                     6.97846   3.18467   0.60355 
 H                     5.41693   3.14866   0.73743 
 H                     6.90727   0.55048   2.33137 
 H                     5.34491   0.67544   2.29934 
 H                     8.36475   1.75961   0.62692 
 H                     8.32866   0.1929    0.5854 
 H                     7.07411  -1.09286   0.4946 
 H                     5.51267  -1.13352   0.62827 
 H                     6.97521   0.66594  -1.98917 
 H                     5.41263   0.79177  -1.99983 
 
                          Input orientation:                          
 ---------------------------------------------------------------------
 Center     Atomic      Atomic             Coordinates (Angstroms)
 Number     Number       Type             X           Y           Z
 ---------------------------------------------------------------------
      1         26           0        6.203972    1.037146    0.170968
      2          8           0        8.023440    0.995626    0.156356
      3          8           0        6.246944   -0.781624    0.119724
      4          8           0        6.226075    1.157740   -1.644898
      5          8           0        4.384402    1.018165    0.205705
      6          8           0        6.165579    2.856269    0.212425
      7          8           0        6.168506    1.060011    1.990478
      8          1           0        4.065459    1.786488    0.684823
      9          1           0        4.081015    0.219439    0.643417
     10          1           0        6.978462    3.184666    0.603547
     11          1           0        5.416932    3.148658    0.737435
     12          1           0        6.907270    0.550479    2.331367
     13          1           0        5.344913    0.675438    2.299344
     14          1           0        8.364747    1.759612    0.626924
     15          1           0        8.328661    0.192904    0.585399
     16          1           0        7.074109   -1.092859    0.494599
     17          1           0        5.512674   -1.133518    0.628269
     18          1           0        6.975214    0.665940   -1.989169
     19          1           0        5.412635    0.791767   -1.999833
 ---------------------------------------------------------------------
                    Distance matrix (angstroms):
                    1          2          3          4          5
     1  Fe   0.000000
     2  O    1.820000   0.000000
     3  O    1.820000   2.513145   0.000000
     4  O    1.820000   2.549768   2.622110   0.000000
     5  O    1.820000   3.639442   2.591466   2.614569   0.000000
     6  O    1.820000   2.629977   3.639984   2.517600   2.559543
     7  O    1.820000   2.609393   2.626309   3.637146   2.523924
     8  H    2.323532   4.070670   3.416639   3.239010   0.960000
     9  H    2.323532   4.047519   2.442874   3.273848   0.960000
    10  H    2.323532   2.466547   4.062101   3.119298   3.403109
    11  H    2.323532   3.430318   4.064186   3.208423   2.426490
    12  H    2.323532   2.484888   2.664939   4.079642   3.331971
    13  H    2.323532   3.445203   2.772622   4.070148   2.328812
    14  H    2.323532   0.960000   3.346673   3.177631   4.070664
    15  H    2.323532   0.960000   2.345230   3.213409   4.047517
    16  H    2.323532   2.318924   0.960000   3.218976   3.431385
    17  H    2.323532   3.325643   0.960000   3.305464   2.466029
    18  H    2.323532   2.410549   2.659558   0.960000   3.413772
    19  H    2.323532   3.392198   2.768421   0.960000   2.443955
                    6          7          8          9         10
     6  O    0.000000
     7  O    2.527454   0.000000
     8  H    2.403767   2.579789   0.000000
     9  H    3.388810   2.622738   1.567673   0.000000
    10  H    0.960000   2.663412   3.232197   4.146005   0.000000
    11  H    0.960000   2.549005   1.919572   3.220844   1.567673
    12  H    3.218181   0.960000   3.509233   3.308546   3.151090
    13  H    3.128058   0.960000   2.340537   2.132479   3.440993
    14  H    2.492148   2.678096   4.299762   4.552226   1.988242
    15  H    3.451310   2.718895   4.552393   4.248125   3.282377
    16  H    4.062101   2.773558   4.168789   3.271526   4.279981
    17  H    4.064186   2.664075   3.259458   1.969865   4.560247
    18  H    3.209372   4.079665   4.107620   3.937799   3.614716
    19  H    3.118201   4.070120   3.164132   3.014555   3.867217
                   11         12         13         14         15
    11  H    0.000000
    12  H    3.392972   0.000000
    13  H    2.926015   1.567673   0.000000
    14  H    3.260563   2.547817   3.618262   0.000000
    15  H    4.151838   2.279609   3.474651   1.567673   0.000000
    16  H    4.560228   2.470246   3.061715   3.133664   1.798703
    17  H    4.284637   2.771513   2.468391   4.062576   3.113039
    18  H    4.003312   4.322613   4.587953   3.157667   2.946860
    19  H    3.612145   4.588186   4.301283   4.068358   3.942749
                   16         17         18         19
    16  H    0.000000
    17  H    1.567673   0.000000
    18  H    3.045038   3.496863   0.000000
    19  H    3.540410   3.259394   1.567673   0.000000
 Stoichiometry    FeH12O6(2+)
 Framework group  C1[X(FeH12O6)]
 Deg. of freedom    51
 Full point group                 C1      NOp   1
 Largest Abelian subgroup         C1      NOp   1
 Largest concise Abelian subgroup C1      NOp   1
                         Standard orientation:                         
 ---------------------------------------------------------------------
 Center     Atomic      Atomic             Coordinates (Angstroms)
 Number     Number       Type             X           Y           Z
 ---------------------------------------------------------------------
      1         26           0        0.010146   -0.033639    0.027691
      2          8           0        1.539344   -0.374401   -0.898502
      3          8           0        0.867758    1.400282    0.749336
      4          8           0        0.602850   -1.139176    1.346361
      5          8           0       -1.499338    0.367194    0.962139
      6          8           0       -0.840449   -1.474176   -0.689069
      7          8           0       -0.658320    0.960583   -1.342373
      8          1           0       -2.268708    0.074824    0.467984
      9          1           0       -1.548508    1.316127    1.098919
     10          1           0       -0.448150   -1.687237   -1.538955
     11          1           0       -1.770828   -1.269781   -0.808302
     12          1           0        0.060569    1.412336   -1.790388
     13          1           0       -1.276624    1.608088   -0.995908
     14          1           0        1.321268   -0.800900   -1.730453
     15          1           0        1.998620    0.450457   -1.072501
     16          1           0        1.560364    1.692654    0.152330
     17          1           0        0.239897    2.113732    0.884901
     18          1           0        1.559343   -1.082512    1.405608
     19          1           0        0.214198   -0.875614    2.183669
 ---------------------------------------------------------------------
 Rotational constants (GHZ):           2.0241394           1.9746986           1.9394519
 Standard basis: CC-pVTZ (5D, 7F)
 There are   474 symmetry adapted cartesian basis functions of A   symmetry.
 There are   416 symmetry adapted basis functions of A   symmetry.
   416 basis functions,   867 primitive gaussians,   474 cartesian basis functions
    42 alpha electrons       42 beta electrons
       nuclear repulsion energy       767.8155054721 Hartrees.
 NAtoms=   19 NActive=   19 NUniq=   19 SFac= 1.00D+00 NAtFMM=   60 NAOKFM=F Big=F
 Integral buffers will be    131072 words long.
 Raffenetti 2 integral format.
 Two-electron integral symmetry is turned on.
 One-electron integrals computed using PRISM.
 PrsmSu:  requested number of processors reduced to:   4 ShMem   1 Linda.
 NBasis=   416 RedAO= T EigKep=  3.23D-04  NBF=   416
 NBsUse=   416 1.00D-06 EigRej= -1.00D+00 NBFU=   416
 ExpMin= 3.14D-02 ExpMax= 4.32D+06 ExpMxC= 4.91D+03 IAcc=3 IRadAn=         5 AccDes= 0.00D+00
 Harris functional with IExCor=  402 and IRadAn=       5 diagonalized for initial guess.
 HarFok:  IExCor=  402 AccDes= 0.00D+00 IRadAn=         5 IDoV= 1 UseB2=F ITyADJ=14
 ICtDFT=  3500011 ScaDFX=  1.000000  1.000000  1.000000  1.000000
 FoFCou: FMM=F IPFlag=           0 FMFlag=      100000 FMFlg1=           0
         NFxFlg=           0 DoJE=T BraDBF=F KetDBF=T FulRan=T
         wScrn=  0.000000 ICntrl=       500 IOpCl=  0 I1Cent=   200000004 NGrid=           0
         NMat0=    1 NMatS0=      1 NMatT0=    0 NMatD0=    1 NMtDS0=    0 NMtDT0=    0
 Petite list used in FoFCou.
 Requested convergence on RMS density matrix=1.00D-08 within 128 cycles.
 Requested convergence on MAX density matrix=1.00D-06.
 Requested convergence on             energy=1.00D-06.
 No special actions if energy rises.
 EnCoef did     2 forward-backward iterations
 EnCoef did     2 forward-backward iterations
 SCF Done:  E(RB3LYP) =  -1721.91806760     A.U. after   15 cycles
            NFock= 15  Conv=0.82D-08     -V/T= 2.0014
 DoSCS=F DFT=T ScalE2(SS,OS)=  1.000000  1.000000
 Range of M.O.s used for correlation:     1   416
 NBasis=   416 NAE=    42 NBE=    42 NFC=     0 NFV=     0
 NROrb=    416 NOA=    42 NOB=    42 NVA=   374 NVB=   374

 **** Warning!!: The largest alpha MO coefficient is  0.11080060D+02

 Orbital symmetries:
       Occupied  (A) (A) (A) (A) (A) (A) (A) (A) (A) (A) (A) (A)
                 (A) (A) (A) (A) (A) (A) (A) (A) (A) (A) (A) (A)
                 (A) (A) (A) (A) (A) (A) (A) (A) (A) (A) (A) (A)
                 (A) (A) (A) (A) (A) (A)
       Virtual   (A) (A) (A) (A) (A) (A) (A) (A) (A) (A) (A) (A)
                 (A) (A) (A) (A) (A) (A) (A) (A) (A) (A) (A) (A)
                 (A) (A) (A) (A) (A) (A) (A) (A) (A) (A) (A) (A)
                 (A) (A) (A) (A) (A) (A) (A) (A) (A) (A) (A) (A)
                 (A) (A) (A) (A) (A) (A) (A) (A) (A) (A) (A) (A)
                 (A) (A) (A) (A) (A) (A) (A) (A) (A) (A) (A) (A)
                 (A) (A) (A) (A) (A) (A) (A) (A) (A) (A) (A) (A)
                 (A) (A) (A) (A) (A) (A) (A) (A) (A) (A) (A) (A)
                 (A) (A) (A) (A) (A) (A) (A) (A) (A) (A) (A) (A)
                 (A) (A) (A) (A) (A) (A) (A) (A) (A) (A) (A) (A)
                 (A) (A) (A) (A) (A) (A) (A) (A) (A) (A) (A) (A)
                 (A) (A) (A) (A) (A) (A) (A) (A) (A) (A) (A) (A)
                 (A) (A) (A) (A) (A) (A) (A) (A) (A) (A) (A) (A)
                 (A) (A) (A) (A) (A) (A) (A) (A) (A) (A) (A) (A)
                 (A) (A) (A) (A) (A) (A) (A) (A) (A) (A) (A) (A)
                 (A) (A) (A) (A) (A) (A) (A) (A) (A) (A) (A) (A)
                 (A) (A) (A) (A) (A) (A) (A) (A) (A) (A) (A) (A)
                 (A) (A) (A) (A) (A) (A) (A) (A) (A) (A) (A) (A)
                 (A) (A) (A) (A) (A) (A) (A) (A) (A) (A) (A) (A)
                 (A) (A) (A) (A) (A) (A) (A) (A) (A) (A) (A) (A)
                 (A) (A) (A) (A) (A) (A) (A) (A) (A) (A) (A) (A)
                 (A) (A) (A) (A) (A) (A) (A) (A) (A) (A) (A) (A)
                 (A) (A) (A) (A) (A) (A) (A) (A) (A) (A) (A) (A)
                 (A) (A) (A) (A) (A) (A) (A) (A) (A) (A) (A) (A)
                 (A) (A) (A) (A) (A) (A) (A) (A) (A) (A) (A) (A)
                 (A) (A) (A) (A) (A) (A) (A) (A) (A) (A) (A) (A)
                 (A) (A) (A) (A) (A) (A) (A) (A) (A) (A) (A) (A)
                 (A) (A) (A) (A) (A) (A) (A) (A) (A) (A) (A) (A)
                 (A) (A) (A) (A) (A) (A) (A) (A) (A) (A) (A) (A)
                 (A) (A) (A) (A) (A) (A) (A) (A) (A) (A) (A) (A)
                 (A) (A) (A) (A) (A) (A) (A) (A) (A) (A) (A) (A)
                 (A) (A)
    24 initial guesses have been made.
 Convergence on wavefunction:    0.001000000000000
 Iteration     1 Dimension    24 NMult     0 NNew     24
 CISAX will form     1 AO SS matrices at one time.
 New state      1 was old state     20
 New state      3 was old state      1
 New state      5 was old state      3
 New state      6 was old state     18
 New state      7 was old state      6
 New state      8 was old state      5
 New state      9 was old state     24
 New state     10 was old state     17
 New state     11 was old state      8
 New state     12 was old state      7
 Iteration     2 Dimension    48 NMult    24 NNew     24
 New state      2 was old state      6
 New state      3 was old state      9
 New state      4 was old state     20
 New state      5 was old state     23
 New state      6 was old state     10
 New state      7 was old state      2
 New state      8 was old state      3
 New state      9 was old state     15
 New state     10 was old state      4
 New state     11 was old state      5
 New state     12 was old state      7
 Iteration     3 Dimension    54 NMult    48 NNew      6
 New state      4 was old state      6
 New state      5 was old state      8
 New state      6 was old state      9
 Iteration     4 Dimension    60 NMult    54 NNew      6
 Iteration     5 Dimension    66 NMult    60 NNew      6
 Iteration     6 Dimension    71 NMult    66 NNew      5
 Iteration     7 Dimension    75 NMult    71 NNew      4
 Iteration     8 Dimension    77 NMult    75 NNew      2
 Iteration     9 Dimension    79 NMult    77 NNew      2
 Iteration    10 Dimension    81 NMult    79 NNew      2
 ***********************************************************************
 Stability analysis using <AA,BB:AA,BB> singles matrix:
 ***********************************************************************
 Ground to excited state transition densities written to RWF  633

 Eigenvectors of the stability matrix:
 
 Eigenvector   1:      Triplet-A    Eigenvalue= 0.0289235  <S**2>=2.000
      42 -> 46         0.43877
      42 -> 47         0.34952
      42 -> 49        -0.33865
      42 -> 50         0.21663
 
 Eigenvector   2:      Triplet-A    Eigenvalue= 0.0359928  <S**2>=2.000
      41 -> 46        -0.14619
      41 -> 47         0.33180
      41 -> 49         0.13570
      42 -> 46        -0.19362
      42 -> 47         0.46592
      42 -> 49         0.17787
      42 -> 50        -0.10392
 
 Eigenvector   3:      Triplet-A    Eigenvalue= 0.0381518  <S**2>=2.000
      41 -> 46         0.20875
      41 -> 47        -0.45419
      41 -> 49        -0.19064
      41 -> 50         0.11249
      42 -> 46        -0.14442
      42 -> 47         0.33336
      42 -> 49         0.13196
 
 Eigenvector   4:      Singlet-A    Eigenvalue= 0.0917015  <S**2>=0.000
      42 -> 43         0.15483
      42 -> 46         0.49119
      42 -> 47         0.21180
      42 -> 49        -0.35746
      42 -> 50         0.20944
 
 Eigenvector   5:      Singlet-A    Eigenvalue= 0.0997292  <S**2>=0.000
      41 -> 43         0.12751
      41 -> 45         0.10639
      41 -> 46         0.27620
      41 -> 47        -0.37198
      41 -> 49        -0.22514
      41 -> 50         0.12619
      42 -> 43         0.40671
 
 Eigenvector   6:      Singlet-A    Eigenvalue= 0.1000569  <S**2>=0.000
      41 -> 43        -0.11000
      41 -> 46        -0.20432
      41 -> 47         0.27468
      41 -> 49         0.16612
      42 -> 43         0.55530
 The wavefunction is stable under the perturbations considered.

 **********************************************************************

            Population analysis using the SCF density.

 **********************************************************************

 Orbital symmetries:
       Occupied  (A) (A) (A) (A) (A) (A) (A) (A) (A) (A) (A) (A)
                 (A) (A) (A) (A) (A) (A) (A) (A) (A) (A) (A) (A)
                 (A) (A) (A) (A) (A) (A) (A) (A) (A) (A) (A) (A)
                 (A) (A) (A) (A) (A) (A)
       Virtual   (A) (A) (A) (A) (A) (A) (A) (A) (A) (A) (A) (A)
                 (A) (A) (A) (A) (A) (A) (A) (A) (A) (A) (A) (A)
                 (A) (A) (A) (A) (A) (A) (A) (A) (A) (A) (A) (A)
                 (A) (A) (A) (A) (A) (A) (A) (A) (A) (A) (A) (A)
                 (A) (A) (A) (A) (A) (A) (A) (A) (A) (A) (A) (A)
                 (A) (A) (A) (A) (A) (A) (A) (A) (A) (A) (A) (A)
                 (A) (A) (A) (A) (A) (A) (A) (A) (A) (A) (A) (A)
                 (A) (A) (A) (A) (A) (A) (A) (A) (A) (A) (A) (A)
                 (A) (A) (A) (A) (A) (A) (A) (A) (A) (A) (A) (A)
                 (A) (A) (A) (A) (A) (A) (A) (A) (A) (A) (A) (A)
                 (A) (A) (A) (A) (A) (A) (A) (A) (A) (A) (A) (A)
                 (A) (A) (A) (A) (A) (A) (A) (A) (A) (A) (A) (A)
                 (A) (A) (A) (A) (A) (A) (A) (A) (A) (A) (A) (A)
                 (A) (A) (A) (A) (A) (A) (A) (A) (A) (A) (A) (A)
                 (A) (A) (A) (A) (A) (A) (A) (A) (A) (A) (A) (A)
                 (A) (A) (A) (A) (A) (A) (A) (A) (A) (A) (A) (A)
                 (A) (A) (A) (A) (A) (A) (A) (A) (A) (A) (A) (A)
                 (A) (A) (A) (A) (A) (A) (A) (A) (A) (A) (A) (A)
                 (A) (A) (A) (A) (A) (A) (A) (A) (A) (A) (A) (A)
                 (A) (A) (A) (A) (A) (A) (A) (A) (A) (A) (A) (A)
                 (A) (A) (A) (A) (A) (A) (A) (A) (A) (A) (A) (A)
                 (A) (A) (A) (A) (A) (A) (A) (A) (A) (A) (A) (A)
                 (A) (A) (A) (A) (A) (A) (A) (A) (A) (A) (A) (A)
                 (A) (A) (A) (A) (A) (A) (A) (A) (A) (A) (A) (A)
                 (A) (A) (A) (A) (A) (A) (A) (A) (A) (A) (A) (A)
                 (A) (A) (A) (A) (A) (A) (A) (A) (A) (A) (A) (A)
                 (A) (A) (A) (A) (A) (A) (A) (A) (A) (A) (A) (A)
                 (A) (A) (A) (A) (A) (A) (A) (A) (A) (A) (A) (A)
                 (A) (A) (A) (A) (A) (A) (A) (A) (A) (A) (A) (A)
                 (A) (A) (A) (A) (A) (A) (A) (A) (A) (A) (A) (A)
                 (A) (A) (A) (A) (A) (A) (A) (A) (A) (A) (A) (A)
                 (A) (A)
 The electronic state is 1-A.
 Alpha  occ. eigenvalues -- -256.32198 -30.27069 -26.13187 -26.13030 -26.12877
 Alpha  occ. eigenvalues --  -19.54393 -19.54360 -19.54330 -19.54294 -19.51282
 Alpha  occ. eigenvalues --  -19.48318  -3.71834  -2.49720  -2.49362  -2.49046
 Alpha  occ. eigenvalues --   -1.45697  -1.43546  -1.43072  -1.42864  -1.40477
 Alpha  occ. eigenvalues --   -1.37469  -0.99364  -0.96648  -0.95988  -0.94478
 Alpha  occ. eigenvalues --   -0.91351  -0.90290  -0.86782  -0.84416  -0.83206
 Alpha  occ. eigenvalues --   -0.81758  -0.81193  -0.78223  -0.77331  -0.74261
 Alpha  occ. eigenvalues --   -0.74133  -0.72755  -0.70648  -0.68190  -0.54735
 Alpha  occ. eigenvalues --   -0.53397  -0.52184
 Alpha virt. eigenvalues --   -0.38299  -0.33279  -0.31604  -0.29899  -0.29520
 Alpha virt. eigenvalues --   -0.28329  -0.27740  -0.24325  -0.22524  -0.21463
 Alpha virt. eigenvalues --   -0.19962  -0.19093  -0.17718  -0.16254  -0.14113
 Alpha virt. eigenvalues --   -0.13220  -0.12738  -0.12116  -0.06688  -0.05697
 Alpha virt. eigenvalues --   -0.04403  -0.03240  -0.02838  -0.00738  -0.00057
 Alpha virt. eigenvalues --    0.01032   0.01890   0.02541   0.06545   0.07405
 Alpha virt. eigenvalues --    0.08354   0.09569   0.11593   0.12187   0.12830
 Alpha virt. eigenvalues --    0.13922   0.14005   0.16296   0.18127   0.18618
 Alpha virt. eigenvalues --    0.21417   0.22503   0.26498   0.26663   0.28422
 Alpha virt. eigenvalues --    0.30187   0.31527   0.32196   0.32241   0.32863
 Alpha virt. eigenvalues --    0.33277   0.36186   0.37184   0.37789   0.38167
 Alpha virt. eigenvalues --    0.38627   0.41124   0.41290   0.43044   0.48787
 Alpha virt. eigenvalues --    0.52784   0.54029   0.55519   0.57075   0.59449
 Alpha virt. eigenvalues --    0.60096   0.60644   0.61948   0.63323   0.64420
 Alpha virt. eigenvalues --    0.65297   0.67287   0.69838   0.71959   0.74783
 Alpha virt. eigenvalues --    0.77217   0.78137   0.81655   0.83839   0.85280
 Alpha virt. eigenvalues --    0.85921   0.89146   0.89878   0.91187   0.93368
 Alpha virt. eigenvalues --    0.95093   0.95363   0.96709   0.97772   0.98879
 Alpha virt. eigenvalues --    1.00507   1.01687   1.02851   1.03999   1.05102
 Alpha virt. eigenvalues --    1.06278   1.06946   1.09769   1.11616   1.13236
 Alpha virt. eigenvalues --    1.15518   1.18445   1.24407   1.28335   1.30855
 Alpha virt. eigenvalues --    1.31136   1.33222   1.34057   1.36203   1.38171
 Alpha virt. eigenvalues --    1.40033   1.41957   1.44493   1.45375   1.46704
 Alpha virt. eigenvalues --    1.49491   1.52725   1.55457   1.57081   1.58919
 Alpha virt. eigenvalues --    1.59867   1.60219   1.64413   1.66666   1.69650
 Alpha virt. eigenvalues --    1.72962   1.76035   1.76432   1.78067   1.80035
 Alpha virt. eigenvalues --    1.86097   1.87504   1.90702   1.91724   1.97170
 Alpha virt. eigenvalues --    1.99307   2.03177   2.11483   2.16202   2.18535
 Alpha virt. eigenvalues --    2.19203   2.21719   2.24004   2.24493   2.25073
 Alpha virt. eigenvalues --    2.28188   2.29531   2.32568   2.33154   2.35348
 Alpha virt. eigenvalues --    2.37332   2.39953   2.41587   2.42261   2.44216
 Alpha virt. eigenvalues --    2.44949   2.61747   2.65216   2.69960   2.71963
 Alpha virt. eigenvalues --    2.76319   2.78930   2.82473   2.86626   2.88609
 Alpha virt. eigenvalues --    2.91041   2.93183   2.94349   2.95112   2.95862
 Alpha virt. eigenvalues --    2.97841   2.98229   2.98778   2.99990   3.00454
 Alpha virt. eigenvalues --    3.01210   3.03343   3.05530   3.07884   3.08850
 Alpha virt. eigenvalues --    3.09967   3.15864   3.16379   3.17708   3.18666
 Alpha virt. eigenvalues --    3.19613   3.20896   3.22768   3.24169   3.25755
 Alpha virt. eigenvalues --    3.31476   3.31944   3.34516   3.35400   3.37064
 Alpha virt. eigenvalues --    3.38794   3.38815   3.41850   3.42722   3.43527
 Alpha virt. eigenvalues --    3.45406   3.46395   3.48311   3.48790   3.49416
 Alpha virt. eigenvalues --    3.51196   3.51900   3.53039   3.54012   3.54627
 Alpha virt. eigenvalues --    3.55180   3.56750   3.57480   3.58497   3.59243
 Alpha virt. eigenvalues --    3.62101   3.64600   3.66268   3.69494   3.70579
 Alpha virt. eigenvalues --    3.73707   3.73865   3.75256   3.76344   3.77745
 Alpha virt. eigenvalues --    3.79884   3.81723   3.82391   3.83233   3.85071
 Alpha virt. eigenvalues --    3.85529   3.86984   3.88147   3.88960   3.90478
 Alpha virt. eigenvalues --    3.90610   3.92022   3.92718   3.93840   3.94678
 Alpha virt. eigenvalues --    3.95027   3.97627   3.99450   4.01766   4.04028
 Alpha virt. eigenvalues --    4.08017   4.10906   4.13853   4.15093   4.16400
 Alpha virt. eigenvalues --    4.21582   4.22883   4.27338   4.28088   4.30197
 Alpha virt. eigenvalues --    4.32621   4.35493   4.42589   4.48094   4.52430
 Alpha virt. eigenvalues --    4.53166   4.54305   4.55329   4.67893   4.69988
 Alpha virt. eigenvalues --    4.72224   4.73014   4.75964   4.80937   4.83140
 Alpha virt. eigenvalues --    4.83609   4.85123   4.86710   4.88459   4.91680
 Alpha virt. eigenvalues --    4.92583   4.94711   4.98781   5.20528   5.23377
 Alpha virt. eigenvalues --    5.26422   5.27244   5.29462   5.32172   5.62387
 Alpha virt. eigenvalues --    5.69434   5.74703   5.75947   5.77168   5.78478
 Alpha virt. eigenvalues --    5.78997   5.80070   6.06142   6.07840   6.09108
 Alpha virt. eigenvalues --    6.10117   6.11204   6.12484   6.13636   6.14300
 Alpha virt. eigenvalues --    6.16086   6.16588   6.18571   6.20723   6.21755
 Alpha virt. eigenvalues --    6.22737   6.24071   6.27590   6.29602   6.30734
 Alpha virt. eigenvalues --    6.31769   6.32077   6.32978   6.33556   6.34672
 Alpha virt. eigenvalues --    6.36018   6.36931   6.38258   6.38634   6.40706
 Alpha virt. eigenvalues --    6.41631   6.43473   6.44030   6.45861   6.48674
 Alpha virt. eigenvalues --    6.49731   6.54547   6.58598   6.71822   6.74652
 Alpha virt. eigenvalues --    6.75934   6.78442   6.80009   6.81364   6.85562
 Alpha virt. eigenvalues --    6.86316   6.88594   6.90953   6.91479   6.92365
 Alpha virt. eigenvalues --    6.94584   6.96250   7.01954   7.03230   7.07109
 Alpha virt. eigenvalues --    7.14309   7.29978   7.47430   7.48111   7.49564
 Alpha virt. eigenvalues --    7.51907   7.55846   8.12544   8.13187   8.14732
 Alpha virt. eigenvalues --    8.18877   8.20643   8.21977   8.40068   8.41621
 Alpha virt. eigenvalues --    8.49711   8.51781   8.70470   8.72667   8.75291
 Alpha virt. eigenvalues --    9.21175   9.23543   9.24886  13.15436  13.39222
 Alpha virt. eigenvalues --   13.57177  13.59455  13.76891  13.87595
          Condensed to atoms (all electrons):
               1          2          3          4          5          6
     1  Fe  25.145957   0.115133   0.129993   0.142190   0.110823   0.130225
     2  O    0.115133   7.508319  -0.016426  -0.017449  -0.003094  -0.009343
     3  O    0.129993  -0.016426   7.510137  -0.021547  -0.010766  -0.003238
     4  O    0.142190  -0.017449  -0.021547   7.492427  -0.012999  -0.025431
     5  O    0.110823  -0.003094  -0.010766  -0.012999   7.511849  -0.012520
     6  O    0.130225  -0.009343  -0.003238  -0.025431  -0.012520   7.454799
     7  O    0.148729  -0.015301  -0.018348  -0.003317  -0.022404  -0.031285
     8  H   -0.034103  -0.000017   0.000650   0.000014   0.326126  -0.000070
     9  H   -0.027073  -0.000060  -0.001105   0.000180   0.318698   0.000736
    10  H   -0.018217  -0.001823  -0.000059  -0.001122   0.000782   0.335519
    11  H   -0.012008   0.000570  -0.000037  -0.000555  -0.002341   0.326802
    12  H   -0.041684   0.006180  -0.000368   0.000052  -0.000045  -0.000491
    13  H   -0.045538  -0.000711  -0.000183   0.000050   0.009373   0.000173
    14  H   -0.031570   0.330663   0.001002   0.000023  -0.000029   0.000224
    15  H   -0.027121   0.317095  -0.002576   0.000744  -0.000061   0.000436
    16  H   -0.038229  -0.000485   0.310575  -0.000126   0.000694  -0.000052
    17  H   -0.039204   0.001138   0.308643  -0.000594   0.001091  -0.000075
    18  H   -0.007665  -0.000368  -0.002416   0.325244   0.000501  -0.000334
    19  H   -0.012465   0.000575  -0.002105   0.330245   0.000294  -0.000735
               7          8          9         10         11         12
     1  Fe   0.148729  -0.034103  -0.027073  -0.018217  -0.012008  -0.041684
     2  O   -0.015301  -0.000017  -0.000060  -0.001823   0.000570   0.006180
     3  O   -0.018348   0.000650  -0.001105  -0.000059  -0.000037  -0.000368
     4  O   -0.003317   0.000014   0.000180  -0.001122  -0.000555   0.000052
     5  O   -0.022404   0.326126   0.318698   0.000782  -0.002341  -0.000045
     6  O   -0.031285  -0.000070   0.000736   0.335519   0.326802  -0.000491
     7  O    7.567192  -0.005604  -0.004187  -0.004101  -0.004115   0.300455
     8  H   -0.005604   0.481233  -0.020307  -0.001019   0.009349  -0.000692
     9  H   -0.004187  -0.020307   0.496531   0.000178  -0.000689  -0.001054
    10  H   -0.004101  -0.001019   0.000178   0.478288  -0.019669  -0.000834
    11  H   -0.004115   0.009349  -0.000689  -0.019669   0.485411  -0.000992
    12  H    0.300455  -0.000692  -0.001054  -0.000834  -0.000992   0.503045
    13  H    0.288841   0.008080   0.009109  -0.000466  -0.000685  -0.016088
    14  H   -0.004564  -0.000362   0.000029   0.008474  -0.000949   0.005050
    15  H   -0.002802   0.000051  -0.000464  -0.000945   0.000152   0.005834
    16  H   -0.000976   0.000332  -0.001090  -0.000389   0.000029   0.003452
    17  H   -0.001099  -0.000661   0.008403   0.000021  -0.000399   0.004520
    18  H   -0.000041   0.000106   0.000162   0.000251   0.000177  -0.000376
    19  H   -0.000079  -0.000733  -0.001039   0.000119   0.000235   0.000030
              13         14         15         16         17         18
     1  Fe  -0.045538  -0.031570  -0.027121  -0.038229  -0.039204  -0.007665
     2  O   -0.000711   0.330663   0.317095  -0.000485   0.001138  -0.000368
     3  O   -0.000183   0.001002  -0.002576   0.310575   0.308643  -0.002416
     4  O    0.000050   0.000023   0.000744  -0.000126  -0.000594   0.325244
     5  O    0.009373  -0.000029  -0.000061   0.000694   0.001091   0.000501
     6  O    0.000173   0.000224   0.000436  -0.000052  -0.000075  -0.000334
     7  O    0.288841  -0.004564  -0.002802  -0.000976  -0.001099  -0.000041
     8  H    0.008080  -0.000362   0.000051   0.000332  -0.000661   0.000106
     9  H    0.009109   0.000029  -0.000464  -0.001090   0.008403   0.000162
    10  H   -0.000466   0.008474  -0.000945  -0.000389   0.000021   0.000251
    11  H   -0.000685  -0.000949   0.000152   0.000029  -0.000399   0.000177
    12  H   -0.016088   0.005050   0.005834   0.003452   0.004520  -0.000376
    13  H    0.526001  -0.000860  -0.001027   0.001560   0.003728   0.000035
    14  H   -0.000860   0.467547  -0.018756  -0.001113   0.000291  -0.000732
    15  H   -0.001027  -0.018756   0.501508   0.014701  -0.000952  -0.000816
    16  H    0.001560  -0.001113   0.014701   0.506075  -0.010990  -0.001113
    17  H    0.003728   0.000291  -0.000952  -0.010990   0.502415  -0.000716
    18  H    0.000035  -0.000732  -0.000816  -0.001113  -0.000716   0.456596
    19  H   -0.000438   0.000133   0.000206  -0.000393  -0.001022  -0.017544
              19
     1  Fe  -0.012465
     2  O    0.000575
     3  O   -0.002105
     4  O    0.330245
     5  O    0.000294
     6  O   -0.000735
     7  O   -0.000079
     8  H   -0.000733
     9  H   -0.001039
    10  H    0.000119
    11  H    0.000235
    12  H    0.000030
    13  H   -0.000438
    14  H    0.000133
    15  H    0.000206
    16  H   -0.000393
    17  H   -0.001022
    18  H   -0.017544
    19  H    0.454575
 Mulliken charges:
               1
     1  Fe   0.411828
     2  O   -0.214595
     3  O   -0.181826
     4  O   -0.208032
     5  O   -0.215972
     6  O   -0.165342
     7  O   -0.186995
     8  H    0.237628
     9  H    0.223042
    10  H    0.225013
    11  H    0.219715
    12  H    0.234007
    13  H    0.219044
    14  H    0.245498
    15  H    0.214794
    16  H    0.217538
    17  H    0.225464
    18  H    0.249048
    19  H    0.250142
 Sum of Mulliken charges =   2.00000
 Mulliken charges with hydrogens summed into heavy atoms:
               1
     1  Fe   0.411828
     2  O    0.245697
     3  O    0.261177
     4  O    0.291158
     5  O    0.244698
     6  O    0.279386
     7  O    0.266056
 Electronic spatial extent (au):  <R**2>=            856.4626
 Charge=              2.0000 electrons
 Dipole moment (field-independent basis, Debye):
    X=             -0.5584    Y=              5.0317    Z=             -2.9308  Tot=              5.8497
 Quadrupole moment (field-independent basis, Debye-Ang):
   XX=            -22.5087   YY=            -27.7385   ZZ=            -27.6860
   XY=             -0.1860   XZ=             -2.7084   YZ=              2.1652
 Traceless Quadrupole moment (field-independent basis, Debye-Ang):
   XX=              3.4690   YY=             -1.7607   ZZ=             -1.7083
   XY=             -0.1860   XZ=             -2.7084   YZ=              2.1652
 Octapole moment (field-independent basis, Debye-Ang**2):
  XXX=            -11.5046  YYY=             31.6019  ZZZ=             -4.1584  XYY=             -2.3773
  XXY=              7.0743  XXZ=             -5.2318  XZZ=             10.8047  YZZ=             -7.3911
  YYZ=             -8.5719  XYZ=             -8.8579
 Hexadecapole moment (field-independent basis, Debye-Ang**3):
 XXXX=           -201.4687 YYYY=           -239.3471 ZZZZ=           -211.8564 XXXY=             11.3642
 XXXZ=             -3.9953 YYYX=             -4.0766 YYYZ=             19.9411 ZZZX=            -11.4767
 ZZZY=             -4.0167 XXYY=            -65.8390 XXZZ=            -78.3815 YYZZ=            -57.6633
 XXYZ=             -2.2787 YYXZ=             -0.1931 ZZXY=             -8.7808
 N-N= 7.678155054721D+02 E-N=-5.597813237761D+03  KE= 1.719453712376D+03
 1\1\GINC-CNODE03\Stability\RB3LYP\CC-pVTZ\Fe1H12O6(2+)\LCZ\14-May-2022
 \0\\# B3LYP/cc-pVTZ stable\\[Fe(H2O)6]2+\\2,1\Fe,0,6.20397196,1.037146
 37,0.17096759\O,0,8.02343961,0.99562593,0.15635557\O,0,6.2469443,-0.78
 162449,0.11972374\O,0,6.22607513,1.15774049,-1.64489818\O,0,4.38440248
 ,1.01816527,0.20570458\O,0,6.16557932,2.85626904,0.21242489\O,0,6.1685
 0601,1.06001114,1.99047834\H,0,4.06545864,1.78648828,0.68482314\H,0,4.
 08101507,0.21943896,0.64341723\H,0,6.97846238,3.18466572,0.60354733\H,
 0,5.41693185,3.14865831,0.73743487\H,0,6.90726982,0.5504793,2.33136739
 \H,0,5.34491271,0.67543823,2.2993436\H,0,8.36474659,1.75961228,0.62692
 374\H,0,8.32866067,0.19290442,0.58539903\H,0,7.07410906,-1.09285932,0.
 49459883\H,0,5.5126741,-1.13351772,0.62826915\H,0,6.97521418,0.6659395
 6,-1.98916919\H,0,5.412635,0.79176715,-1.99983292\\Version=ES64L-G16Re
 vA.03\State=1-A\HF=-1721.9180676\RMSD=8.223e-09\Dipole=0.023862,-1.056
 6833,2.0443956\Quadrupole=3.4968224,-0.3226021,-3.1742203,-0.3474422,-
 0.4912269,0.2980481\PG=C01 [X(Fe1H12O6)]\\@


 THERE'S SMALL CHOICE IN A BOWL OF ROTTEN APPLES.
                     SHAKESPEARE
 Job cpu time:       0 days  3 hours 54 minutes 39.0 seconds.
 Elapsed time:       0 days  0 hours 14 minutes 43.5 seconds.
 File lengths (MBytes):  RWF=    759 Int=      0 D2E=      0 Chk=     44 Scr=      1
 Normal termination of Gaussian 16 at Sat May 14 12:01:55 2022.

Sender: Unischeduler System <lcz@mgt01>
Subject: Job 131988: <#!/bin/bash
#BSUB -J intel
#BSUB -o FeH2O62+-B3LYP.out
#BSUB -n 16
#BSUB -q cqueue
#BSUB -R span[hosts=1]
export g16root=/apps/software
source /apps/software/g16/bsd/g16.profile
export GAUSS_SCRDIR=/scratch
/apps/software/g16/g16 < FeH2O62+-B3LYP.inp > FeH2O62+-B3LYP.out> Done

Job <#!/bin/bash
#BSUB -J intel
#BSUB -o FeH2O62+-B3LYP.out
#BSUB -n 16
#BSUB -q cqueue
#BSUB -R span[hosts=1]
export g16root=/apps/software
source /apps/software/g16/bsd/g16.profile
export GAUSS_SCRDIR=/scratch
/apps/software/g16/g16 < FeH2O62+-B3LYP.inp > FeH2O62+-B3LYP.out> was submitted from host <mgt01> by user <lcz>.
Job was executed on host(s) <16*cnode03>, in queue <cqueue>, as user <lcz>.
</apps/users/lcz> was used as the home directory.
</apps/users/lcz/exe5/task2/anotherStabilityTest/Gaussian/cc-pVTZ> was used as the working directory.
Started at 2022-05-14 11:47:12
Results reported at 2022-05-14 12:01:55

Your job looked like:

------------------------------------------------------------
# User input
#!/bin/bash
#BSUB -J intel
#BSUB -o FeH2O62+-B3LYP.out
#BSUB -n 16
#BSUB -q cqueue
#BSUB -R span[hosts=1]
export g16root=/apps/software
source /apps/software/g16/bsd/g16.profile
export GAUSS_SCRDIR=/scratch
/apps/software/g16/g16 < FeH2O62+-B3LYP.inp > FeH2O62+-B3LYP.out
------------------------------------------------------------

Successfully completed.

Resource usage summary:

    CPU time   :        13968.16 sec.
    Max Memory :              1001 MB
    Max Processes  :               5


The output (if any) follows:

