[Molden Format]
[N_ATOMS]
            3
[Atoms]  AU
C     1    6      -1.073894        0.406783        0.000000
H     2    1      -0.039558       -1.352708        0.000000
H     3    1      -3.077527        0.795516        0.000000
[5D7F9G]
[GTO]
    1
    s    5
   0.123840169E+04   0.551736504E-02
   0.186290050E+03   0.410888285E-01
   0.422511764E+02   0.182253821E+00
   0.116765579E+02   0.468284594E+00
   0.359305065E+01   0.445758173E+00
    s    1
   0.402451470E+00   0.100000000E+01
    s    1
   0.130901830E+00   0.100000000E+01
    p    3
   0.946809706E+01   0.568883319E-01
   0.201035451E+01   0.312940593E+00
   0.547710050E+00   0.760650164E+00
    p    1
   0.152686140E+00   0.100000000E+01
    d    1
   0.800000000E+00   0.100000000E+01
 
    2
    s    3
   0.130107010E+02   0.334854848E-01
   0.196225720E+01   0.234721871E+00
   0.444537960E+00   0.813770285E+00
    s    1
   0.121949620E+00   0.100000000E+01
    p    1
   0.800000000E+00   0.100000000E+01
 
    3
    s    3
   0.130107010E+02   0.334854848E-01
   0.196225720E+01   0.234721871E+00
   0.444537960E+00   0.813770285E+00
    s    1
   0.121949620E+00   0.100000000E+01
    p    1
   0.800000000E+00   0.100000000E+01
 
[MO]
 Sym= A   
 Ene=       -11.268574
 Spin= Alpha
 Occup=       2.000000
   1       -0.991290429
   2       -0.033326781
   3        0.017602032
   4        0.001138948
   5        0.001610674
   6        0.000000000
   7       -0.001311755
   8       -0.001855054
   9       -0.000000000
  10        0.001512609
  11       -0.000000000
  12        0.000000000
  13       -0.000539128
  14        0.001525004
  15        0.002963663
  16       -0.005163785
  17       -0.000546006
  18        0.001537469
  19        0.000000000
  20        0.002963663
  21       -0.005163785
  22        0.001631541
  23       -0.000002329
  24       -0.000000000
 Sym= A   
 Ene=        -0.859005
 Spin= Alpha
 Occup=       2.000000
   1       -0.251429815
   2        0.503543325
   3        0.237062901
   4       -0.046987560
   5       -0.066448721
   6       -0.000000000
   7       -0.009720325
   8       -0.013746258
   9       -0.000000000
  10       -0.009631351
  11        0.000000000
  12        0.000000000
  13        0.002707109
  14       -0.007657457
  15        0.240279087
  16        0.033486988
  17       -0.015329493
  18        0.021583572
  19       -0.000000000
  20        0.240279087
  21        0.033486988
  22        0.025458840
  23       -0.007258884
  24       -0.000000000
 Sym= A   
 Ene=        -0.610080
 Spin= Alpha
 Occup=       2.000000
   1        0.000000000
   2       -0.000000000
   3       -0.000000000
   4        0.356812911
   5       -0.252311375
   6        0.000000000
   7        0.121951048
   8       -0.086234650
   9        0.000000000
  10       -0.000000000
  11       -0.000000000
  12        0.000000000
  13       -0.024584332
  14       -0.008691197
  15        0.334315791
  16        0.115704858
  17       -0.007338832
  18        0.017605269
  19        0.000000000
  20       -0.334315791
  21       -0.115704858
  22       -0.019044658
  23        0.001051160
  24        0.000000000
 Sym= A   
 Ene=        -0.230364
 Spin= Alpha
 Occup=       1.392661
   1       -0.089039764
   2        0.202415521
   3        0.294805509
   4        0.317106073
   5        0.448444075
   6        0.000000000
   7        0.254723234
   8        0.360223707
   9        0.000000000
  10        0.006944444
  11       -0.000000000
  12       -0.000000000
  13        0.000945065
  14       -0.002673257
  15       -0.123009595
  16       -0.073820248
  17        0.017536448
  18        0.006718313
  19        0.000000000
  20       -0.123009595
  21       -0.073820248
  22        0.000489062
  23        0.018772948
  24        0.000000000
 Sym= A   
 Ene=        -0.036493
 Spin= Alpha
 Occup=       0.607339
   1        0.000000000
   2       -0.000000000
   3       -0.000000000
   4       -0.000000000
   5       -0.000000000
   6        0.600945105
   7       -0.000000000
   8       -0.000000000
   9        0.525598595
  10       -0.000000000
  11       -0.010351353
  12       -0.014638643
  13       -0.000000000
  14        0.000000000
  15        0.000000000
  16        0.000000000
  17       -0.000000000
  18       -0.000000000
  19        0.023228709
  20        0.000000000
  21        0.000000000
  22       -0.000000000
  23       -0.000000000
  24        0.023228709
 Sym= A   
 Ene=         0.208819
 Spin= Alpha
 Occup=       0.000000
   1       -0.122537293
   2        0.207146208
   3        2.226315607
   4       -0.082226012
   5       -0.116282125
   6       -0.000000000
   7       -0.360971097
   8       -0.510476977
   9        0.000000000
  10       -0.002428190
  11        0.000000000
  12        0.000000000
  13       -0.001382486
  14        0.003910567
  15       -0.035681556
  16       -1.616794097
  17       -0.000185507
  18       -0.004016391
  19        0.000000000
  20       -0.035681556
  21       -1.616794097
  22       -0.003724891
  23       -0.001513603
  24        0.000000000
 Sym= A   
 Ene=         0.260857
 Spin= Alpha
 Occup=       0.000000
   1        0.000000000
   2       -0.000000000
   3       -0.000000000
   4       -0.243055102
   5        0.171870370
   6        0.000000000
   7       -1.159620743
   8        0.819996964
   9       -0.000000000
  10        0.000000000
  11        0.000000000
  12       -0.000000000
  13        0.014217202
  14        0.005026149
  15       -0.033634394
  16        1.894415532
  17       -0.008573789
  18        0.007564044
  19        0.000000000
  20        0.033634394
  21       -1.894415532
  22       -0.009989242
  23        0.005562342
  24        0.000000000
 Sym= A   
 Ene=         0.568351
 Spin= Alpha
 Occup=       0.000000
   1       -0.110177971
   2        0.996952415
   3       -2.350831981
   4       -0.021111809
   5       -0.029855832
   6       -0.000000000
   7        0.380684628
   8        0.538355397
   9        0.000000000
  10       -0.050531072
  11       -0.000000000
  12       -0.000000000
  13        0.022484204
  14       -0.063599882
  15        0.663453286
  16        0.412282389
  17        0.041184088
  18        0.006117896
  19       -0.000000000
  20        0.663453286
  21        0.412282389
  22       -0.007959022
  23        0.040868224
  24       -0.000000000
 Sym= A   
 Ene=         0.689111
 Spin= Alpha
 Occup=       0.000000
   1        0.000000000
   2       -0.000000000
   3        0.000000000
   4        0.276335659
   5       -0.195403888
   6       -0.000000000
   7       -1.643438173
   8        1.162116425
   9        0.000000000
  10       -0.000000000
  11       -0.000000000
  12        0.000000000
  13       -0.076850037
  14       -0.027168477
  15        0.717531461
  16        0.649842343
  17       -0.062373716
  18       -0.016203198
  19       -0.000000000
  20       -0.717531461
  21       -0.649842343
  22       -0.005513146
  23        0.064207704
  24        0.000000000
 Sym= A   
 Ene=         0.692156
 Spin= Alpha
 Occup=       0.000000
   1       -0.180061954
   2        0.987891781
   3       -1.318860821
   4        0.446217350
   5        0.631030257
   6       -0.000000000
   7       -0.470644704
   8       -0.665574856
   9        0.000000000
  10        0.024310716
  11       -0.000000000
  12       -0.000000000
  13       -0.006614323
  14        0.018709587
  15       -0.251679236
  16        0.437491902
  17        0.012250188
  18        0.022063435
  19       -0.000000000
  20       -0.251679236
  21        0.437491902
  22        0.016718673
  23        0.018903657
  24       -0.000000000
 Sym= A   
 Ene=         0.725350
 Spin= Alpha
 Occup=       0.000000
   1        0.000000000
   2       -0.000000000
   3       -0.000000000
   4       -0.000000000
   5       -0.000000000
   6       -1.001625437
   7        0.000000000
   8        0.000000000
   9        1.071910511
  10        0.000000000
  11        0.004216980
  12        0.005963555
  13       -0.000000000
  14        0.000000000
  15       -0.000000000
  16        0.000000000
  17       -0.000000000
  18        0.000000000
  19       -0.046787080
  20       -0.000000000
  21        0.000000000
  22        0.000000000
  23       -0.000000000
  24       -0.046787080
 Sym= A   
 Ene=         0.856821
 Spin= Alpha
 Occup=       0.000000
   1        0.220594768
   2       -1.271714424
   3        2.846243002
   4        0.364233708
   5        0.515090886
   6       -0.000000000
   7       -0.525796078
   8       -0.743568653
   9        0.000000000
  10       -0.094460770
  11       -0.000000000
  12        0.000000000
  13        0.039791818
  14       -0.112557017
  15        0.522195854
  16       -1.464624690
  17        0.116219324
  18       -0.115961515
  19       -0.000000000
  20        0.522195854
  21       -1.464624690
  22       -0.148067604
  23        0.070922413
  24       -0.000000000
 Sym= A   
 Ene=         0.946742
 Spin= Alpha
 Occup=       0.000000
   1        0.000000000
   2       -0.000000000
   3        0.000000000
   4       -0.737752185
   5        0.521683107
   6        0.000000000
   7        1.102768232
   8       -0.779795125
   9       -0.000000000
  10       -0.000000000
  11        0.000000000
  12       -0.000000000
  13       -0.151257115
  14       -0.053473304
  15        0.551997028
  16       -1.331763196
  17        0.055569878
  18       -0.195119626
  19       -0.000000000
  20       -0.551997028
  21        1.331763196
  22        0.202484150
  23        0.012643139
  24        0.000000000
 Sym= A   
 Ene=         1.420580
 Spin= Alpha
 Occup=       0.000000
   1        0.000000000
   2       -0.000000000
   3        0.000000000
   4        0.000000000
   5        0.000000000
   6       -0.000000000
   7       -0.000000000
   8        0.000000000
   9        0.000000000
  10        0.000000000
  11        0.331912376
  12       -0.234703581
  13        0.000000000
  14       -0.000000000
  15        0.000000000
  16        0.000000000
  17        0.000000000
  18        0.000000000
  19        0.531598667
  20       -0.000000000
  21       -0.000000000
  22        0.000000000
  23       -0.000000000
  24       -0.531598667
 Sym= A   
 Ene=         1.658663
 Spin= Alpha
 Occup=       0.000000
   1       -0.022529314
   2        0.261658462
   3       -0.573890332
   4        0.058408310
   5        0.082599681
   6       -0.000000000
   7        0.216744468
   8        0.306515014
   9       -0.000000000
  10       -0.273399526
  11       -0.000000000
  12       -0.000000000
  13       -0.134110967
  14        0.379352622
  15        0.187430423
  16        0.150920971
  17       -0.403053746
  18       -0.382781365
  19        0.000000000
  20        0.187430423
  21        0.150920971
  22       -0.226550899
  23       -0.507590963
  24        0.000000000
 Sym= A   
 Ene=         1.704962
 Spin= Alpha
 Occup=       0.000000
   1        0.000000000
   2       -0.000000000
   3       -0.000000000
   4        0.074929179
   5       -0.052984305
   6       -0.000000000
   7       -0.725482281
   8        0.513006749
   9       -0.000000000
  10       -0.000000000
  11       -0.000000000
  12       -0.000000000
  13        0.199224769
  14        0.070431111
  15        0.344467838
  16        0.320704704
  17        0.637301729
  18        0.192327816
  19        0.000000000
  20       -0.344467838
  21       -0.320704704
  22        0.031089241
  23       -0.664963865
  24        0.000000000
 Sym= A   
 Ene=         1.713669
 Spin= Alpha
 Occup=       0.000000
   1       -0.000000000
   2        0.000000000
   3       -0.000000000
   4        0.000000000
   5        0.000000000
   6        0.188371145
   7       -0.000000000
   8        0.000000000
   9        0.213219646
  10       -0.000000000
  11        0.299964836
  12        0.424203334
  13        0.000000000
  14        0.000000000
  15        0.000000000
  16        0.000000000
  17        0.000000000
  18       -0.000000000
  19       -0.573575775
  20       -0.000000000
  21       -0.000000000
  22       -0.000000000
  23       -0.000000000
  24       -0.573575775
 Sym= A   
 Ene=         2.095610
 Spin= Alpha
 Occup=       0.000000
   1        0.062119830
   2       -0.532500530
   3        0.349243213
   4        0.090779530
   5        0.128378312
   6       -0.000000000
   7       -0.122684961
   8       -0.173498235
   9        0.000000000
  10       -0.796457299
  11       -0.000000000
  12       -0.000000000
  13       -0.028615391
  14        0.080942848
  15       -0.150004426
  16        0.031927615
  17       -0.071275116
  18        0.415201828
  19        0.000000000
  20       -0.150004426
  21        0.031927615
  22        0.415216151
  23        0.071191630
  24       -0.000000000
 Sym= A   
 Ene=         2.233385
 Spin= Alpha
 Occup=       0.000000
   1        0.000000000
   2       -0.000000000
   3       -0.000000000
   4       -0.000000000
   5        0.000000000
   6       -0.127571159
   7       -0.000000000
   8        0.000000000
   9       -0.211735319
  10       -0.000000000
  11        0.509810979
  12        0.720962897
  13       -0.000000000
  14       -0.000000000
  15        0.000000000
  16        0.000000000
  17       -0.000000000
  18        0.000000000
  19        0.537902305
  20       -0.000000000
  21        0.000000000
  22       -0.000000000
  23       -0.000000000
  24        0.537902305
 Sym= A   
 Ene=         2.361856
 Spin= Alpha
 Occup=       0.000000
   1        0.000000000
   2        0.000000000
   3       -0.000000000
   4        0.528779606
   5       -0.373913346
   6       -0.000000000
   7       -0.034727410
   8        0.024556624
   9       -0.000000000
  10        0.000000000
  11        0.000000000
  12        0.000000000
  13        0.562663405
  14        0.198916072
  15        0.005412193
  16       -0.215572109
  17       -0.045640977
  18       -0.672389370
  19        0.000000000
  20       -0.005412193
  21        0.215572109
  22        0.618727653
  23        0.267145382
  24        0.000000000
 Sym= A   
 Ene=         2.477978
 Spin= Alpha
 Occup=       0.000000
   1        0.078008536
   2       -0.522497966
   3       -0.431380278
   4        0.210975703
   5        0.298356959
   6        0.000000000
   7        0.174870288
   8        0.247297517
   9        0.000000000
  10        0.313580826
  11       -0.000000000
  12       -0.000000000
  13        0.204910015
  14       -0.579618155
  15        0.158731679
  16        0.320486437
  17       -0.738673303
  18        0.134463116
  19       -0.000000000
  20        0.158731679
  21        0.320486437
  22        0.372981538
  23       -0.651615953
  24       -0.000000000
 Sym= A   
 Ene=         2.580743
 Spin= Alpha
 Occup=       0.000000
   1       -0.000000000
   2        0.000000000
   3       -0.000000000
   4       -0.000000000
   5        0.000000000
   6       -0.000000000
   7        0.000000000
   8       -0.000000000
   9       -0.000000000
  10        0.000000000
  11       -0.849460821
  12        0.600675090
  13       -0.000000000
  14       -0.000000000
  15        0.000000000
  16        0.000000000
  17       -0.000000000
  18        0.000000000
  19        0.586251399
  20       -0.000000000
  21        0.000000000
  22       -0.000000000
  23       -0.000000000
  24       -0.586251399
 Sym= A   
 Ene=         3.142375
 Spin= Alpha
 Occup=       0.000000
   1       -0.000000000
   2        0.000000000
   3        0.000000000
   4       -1.005327966
   5        0.710892665
   6        0.000000000
   7       -0.578876596
   8        0.409338186
   9        0.000000000
  10       -0.000000000
  11        0.000000000
  12       -0.000000000
  13        1.129714434
  14        0.399383283
  15        0.950912640
  16        0.412708742
  17       -0.635160275
  18        0.755781258
  19       -0.000000000
  20       -0.950912640
  21       -0.412708742
  22       -0.924269010
  23        0.346930371
  24        0.000000000
 Sym= A   
 Ene=         3.362843
 Spin= Alpha
 Occup=       0.000000
   1       -0.216909128
   2        1.370551915
   3        0.685120586
   4       -0.335359170
   5       -0.474257182
   6       -0.000000000
   7       -0.108960918
   8       -0.154090010
   9        0.000000000
  10       -0.809777738
  11        0.000000000
  12       -0.000000000
  13        0.375047368
  14       -1.060876717
  15       -1.025928370
  16       -0.262744188
  17        0.345162351
  18       -1.011699568
  19       -0.000000000
  20       -1.025928370
  21       -0.262744188
  22       -1.068893906
  23       -0.011784860
  24        0.000000000
 
